MODEL 1
REMARK VINA RESULT:    -8.166      0.000      0.000
REMARK INTER + INTRA:         -11.907
REMARK INTER:                 -11.508
REMARK INTRA:                  -0.399
REMARK UNBOUND:                -0.399
REMARK SMILES CO[C@H]1OC(OC(=O)c2cc(O)c(O)c(O)c2)[C@H](O)[C@@H](O)[C@@H]1O
REMARK SMILES IDX 7 1 8 2 6 3 5 4 3 5 22 6 4 7 20 8 18 9 2 10 1 11 23 12 21 14
REMARK SMILES IDX 19 16 9 18 17 19 10 20 15 21 11 22 13 23 16 24 12 26 14 28
REMARK H PARENT 23 13 21 15 19 17 16 25 12 27 14 29
ROOT
ATOM      1  C   UNL     1      16.033 -12.323  22.876  1.00  0.00     0.340 C 
ATOM      2  O   UNL     1      15.599 -11.269  22.438  1.00  0.00    -0.246 OA
ENDROOT
BRANCH   1   3
ATOM      3  O   UNL     1      16.250 -12.633  24.175  1.00  0.00    -0.429 OA
BRANCH   3   4
ATOM      4  C   UNL     1      17.410 -12.032  24.774  1.00  0.00     0.345 C 
ATOM      5  C   UNL     1      16.086 -10.418  25.925  1.00  0.00     0.285 C 
ATOM      6  C   UNL     1      16.382 -11.055  27.294  1.00  0.00     0.202 C 
ATOM      7  O   UNL     1      17.162 -10.638  25.019  1.00  0.00    -0.308 OA
ATOM      8  C   UNL     1      16.665 -12.543  27.121  1.00  0.00     0.183 C 
ATOM      9  C   UNL     1      17.773 -12.754  26.090  1.00  0.00     0.215 C 
BRANCH   5  10
ATOM     10  O   UNL     1      15.903  -9.014  26.165  1.00  0.00    -0.353 OA
ATOM     11  C   UNL     1      17.025  -8.442  26.826  1.00  0.00     0.198 C 
ENDBRANCH   5  10
BRANCH   6  12
ATOM     12  O   UNL     1      15.281 -10.893  28.201  1.00  0.00    -0.385 OA
ATOM     13  H   UNL     1      14.480 -10.926  27.640  1.00  0.00     0.211 HD
ENDBRANCH   6  12
BRANCH   8  14
ATOM     14  O   UNL     1      17.075 -13.118  28.374  1.00  0.00    -0.387 OA
ATOM     15  H   UNL     1      16.244 -13.407  28.804  1.00  0.00     0.211 HD
ENDBRANCH   8  14
BRANCH   9  16
ATOM     16  O   UNL     1      17.977 -14.159  25.907  1.00  0.00    -0.384 OA
ATOM     17  H   UNL     1      18.175 -14.268  24.955  1.00  0.00     0.211 HD
ENDBRANCH   9  16
ENDBRANCH   3   4
ENDBRANCH   1   3
BRANCH   1  18
ATOM     18  C   UNL     1      16.393 -13.471  22.002  1.00  0.00     0.067 A 
ATOM     19  C   UNL     1      16.072 -13.378  20.635  1.00  0.00     0.066 A 
ATOM     20  C   UNL     1      17.027 -14.621  22.499  1.00  0.00     0.066 A 
ATOM     21  C   UNL     1      16.389 -14.429  19.781  1.00  0.00     0.162 A 
ATOM     22  C   UNL     1      17.332 -15.659  21.628  1.00  0.00     0.162 A 
ATOM     23  C   UNL     1      17.017 -15.566  20.278  1.00  0.00     0.200 A 
BRANCH  21  24
ATOM     24  O   UNL     1      16.104 -14.393  18.446  1.00  0.00    -0.504 OA
ATOM     25  H   UNL     1      16.741 -14.966  17.979  1.00  0.00     0.293 HD
ENDBRANCH  21  24
BRANCH  22  26
ATOM     26  O   UNL     1      17.946 -16.777  22.111  1.00  0.00    -0.504 OA
ATOM     27  H   UNL     1      17.251 -17.241  22.622  1.00  0.00     0.293 HD
ENDBRANCH  22  26
BRANCH  23  28
ATOM     28  O   UNL     1      17.332 -16.607  19.448  1.00  0.00    -0.502 OA
ATOM     29  H   UNL     1      17.885 -17.198  20.001  1.00  0.00     0.293 HD
ENDBRANCH  23  28
ENDBRANCH   1  18
TORSDOF 10
ENDMDL
MODEL 2
REMARK VINA RESULT:    -8.045      2.379      7.656
REMARK INTER + INTRA:         -11.736
REMARK INTER:                 -11.588
REMARK INTRA:                  -0.148
REMARK UNBOUND:                -0.399
REMARK SMILES CO[C@H]1OC(OC(=O)c2cc(O)c(O)c(O)c2)[C@H](O)[C@@H](O)[C@@H]1O
REMARK SMILES IDX 7 1 8 2 6 3 5 4 3 5 22 6 4 7 20 8 18 9 2 10 1 11 23 12 21 14
REMARK SMILES IDX 19 16 9 18 17 19 10 20 15 21 11 22 13 23 16 24 12 26 14 28
REMARK H PARENT 23 13 21 15 19 17 16 25 12 27 14 29
ROOT
ATOM      1  C   UNL     1      16.349 -14.207  20.299  1.00  0.00     0.340 C 
ATOM      2  O   UNL     1      16.650 -13.662  19.249  1.00  0.00    -0.246 OA
ENDROOT
BRANCH   1   3
ATOM      3  O   UNL     1      15.849 -15.455  20.451  1.00  0.00    -0.429 OA
BRANCH   3   4
ATOM      4  C   UNL     1      16.820 -16.512  20.514  1.00  0.00     0.345 C 
ATOM      5  C   UNL     1      15.127 -18.167  20.799  1.00  0.00     0.285 C 
ATOM      6  C   UNL     1      15.379 -18.758  19.401  1.00  0.00     0.202 C 
ATOM      7  O   UNL     1      16.316 -17.586  21.325  1.00  0.00    -0.308 OA
ATOM      8  C   UNL     1      15.925 -17.679  18.473  1.00  0.00     0.183 C 
ATOM      9  C   UNL     1      17.156 -17.021  19.096  1.00  0.00     0.215 C 
BRANCH   5  10
ATOM     10  O   UNL     1      14.686 -19.256  21.624  1.00  0.00    -0.353 OA
ATOM     11  C   UNL     1      13.378 -19.034  22.137  1.00  0.00     0.198 C 
ENDBRANCH   5  10
BRANCH   6  12
ATOM     12  O   UNL     1      14.175 -19.295  18.830  1.00  0.00    -0.385 OA
ATOM     13  H   UNL     1      13.580 -18.527  18.718  1.00  0.00     0.211 HD
ENDBRANCH   6  12
BRANCH   8  14
ATOM     14  O   UNL     1      16.290 -18.252  17.206  1.00  0.00    -0.387 OA
ATOM     15  H   UNL     1      16.238 -19.221  17.342  1.00  0.00     0.211 HD
ENDBRANCH   8  14
BRANCH   9  16
ATOM     16  O   UNL     1      17.613 -15.976  18.231  1.00  0.00    -0.384 OA
ATOM     17  H   UNL     1      17.914 -15.262  18.829  1.00  0.00     0.211 HD
ENDBRANCH   9  16
ENDBRANCH   3   4
ENDBRANCH   1   3
BRANCH   1  18
ATOM     18  C   UNL     1      16.505 -13.547  21.623  1.00  0.00     0.067 A 
ATOM     19  C   UNL     1      16.044 -12.224  21.752  1.00  0.00     0.066 A 
ATOM     20  C   UNL     1      17.094 -14.197  22.719  1.00  0.00     0.066 A 
ATOM     21  C   UNL     1      16.172 -11.568  22.972  1.00  0.00     0.162 A 
ATOM     22  C   UNL     1      17.212 -13.521  23.927  1.00  0.00     0.162 A 
ATOM     23  C   UNL     1      16.755 -12.216  24.055  1.00  0.00     0.200 A 
BRANCH  21  24
ATOM     24  O   UNL     1      15.740 -10.285  23.156  1.00  0.00    -0.504 OA
ATOM     25  H   UNL     1      16.436  -9.790  23.627  1.00  0.00     0.293 HD
ENDBRANCH  21  24
BRANCH  22  26
ATOM     26  O   UNL     1      17.786 -14.152  24.992  1.00  0.00    -0.504 OA
ATOM     27  H   UNL     1      17.996 -13.433  25.623  1.00  0.00     0.293 HD
ENDBRANCH  22  26
BRANCH  23  28
ATOM     28  O   UNL     1      16.887 -11.580  25.259  1.00  0.00    -0.502 OA
ATOM     29  H   UNL     1      17.817 -11.746  25.520  1.00  0.00     0.293 HD
ENDBRANCH  23  28
ENDBRANCH   1  18
TORSDOF 10
ENDMDL
MODEL 3
REMARK VINA RESULT:    -8.017      2.147      7.525
REMARK INTER + INTRA:         -11.697
REMARK INTER:                 -11.184
REMARK INTRA:                  -0.513
REMARK UNBOUND:                -0.399
REMARK SMILES CO[C@H]1OC(OC(=O)c2cc(O)c(O)c(O)c2)[C@H](O)[C@@H](O)[C@@H]1O
REMARK SMILES IDX 7 1 8 2 6 3 5 4 3 5 22 6 4 7 20 8 18 9 2 10 1 11 23 12 21 14
REMARK SMILES IDX 19 16 9 18 17 19 10 20 15 21 11 22 13 23 16 24 12 26 14 28
REMARK H PARENT 23 13 21 15 19 17 16 25 12 27 14 29
ROOT
ATOM      1  C   UNL     1      16.352 -14.154  20.722  1.00  0.00     0.340 C 
ATOM      2  O   UNL     1      16.156 -13.570  19.669  1.00  0.00    -0.246 OA
ENDROOT
BRANCH   1   3
ATOM      3  O   UNL     1      16.430 -15.493  20.905  1.00  0.00    -0.429 OA
BRANCH   3   4
ATOM      4  C   UNL     1      15.990 -16.299  19.800  1.00  0.00     0.345 C 
ATOM      5  C   UNL     1      18.185 -17.157  19.439  1.00  0.00     0.285 C 
ATOM      6  C   UNL     1      17.785 -18.563  19.919  1.00  0.00     0.202 C 
ATOM      7  O   UNL     1      17.070 -16.479  18.869  1.00  0.00    -0.308 OA
ATOM      8  C   UNL     1      16.632 -18.463  20.911  1.00  0.00     0.183 C 
ATOM      9  C   UNL     1      15.478 -17.667  20.301  1.00  0.00     0.215 C 
BRANCH   5  10
ATOM     10  O   UNL     1      19.220 -17.343  18.461  1.00  0.00    -0.353 OA
ATOM     11  C   UNL     1      18.793 -18.185  17.396  1.00  0.00     0.198 C 
ENDBRANCH   5  10
BRANCH   6  12
ATOM     12  O   UNL     1      18.884 -19.239  20.550  1.00  0.00    -0.385 OA
ATOM     13  H   UNL     1      19.268 -18.582  21.165  1.00  0.00     0.211 HD
ENDBRANCH   6  12
BRANCH   8  14
ATOM     14  O   UNL     1      16.162 -19.777  21.260  1.00  0.00    -0.387 OA
ATOM     15  H   UNL     1      15.778 -19.678  22.156  1.00  0.00     0.211 HD
ENDBRANCH   8  14
BRANCH   9  16
ATOM     16  O   UNL     1      14.435 -17.541  21.273  1.00  0.00    -0.384 OA
ATOM     17  H   UNL     1      13.678 -17.156  20.788  1.00  0.00     0.211 HD
ENDBRANCH   9  16
ENDBRANCH   3   4
ENDBRANCH   1   3
BRANCH   1  18
ATOM     18  C   UNL     1      16.551 -13.443  22.014  1.00  0.00     0.067 A 
ATOM     19  C   UNL     1      16.155 -12.095  22.086  1.00  0.00     0.066 A 
ATOM     20  C   UNL     1      17.117 -14.071  23.135  1.00  0.00     0.066 A 
ATOM     21  C   UNL     1      16.325 -11.391  23.273  1.00  0.00     0.162 A 
ATOM     22  C   UNL     1      17.278 -13.347  24.309  1.00  0.00     0.162 A 
ATOM     23  C   UNL     1      16.885 -12.017  24.381  1.00  0.00     0.200 A 
BRANCH  21  24
ATOM     24  O   UNL     1      15.956 -10.082  23.401  1.00  0.00    -0.504 OA
ATOM     25  H   UNL     1      15.320 -10.012  24.136  1.00  0.00     0.293 HD
ENDBRANCH  21  24
BRANCH  22  26
ATOM     26  O   UNL     1      17.830 -13.956  25.398  1.00  0.00    -0.504 OA
ATOM     27  H   UNL     1      18.510 -14.556  25.029  1.00  0.00     0.293 HD
ENDBRANCH  22  26
BRANCH  23  28
ATOM     28  O   UNL     1      17.058 -11.334  25.554  1.00  0.00    -0.502 OA
ATOM     29  H   UNL     1      17.651 -10.592  25.316  1.00  0.00     0.293 HD
ENDBRANCH  23  28
ENDBRANCH   1  18
TORSDOF 10
ENDMDL
MODEL 4
REMARK VINA RESULT:    -7.907      3.238      8.367
REMARK INTER + INTRA:         -11.541
REMARK INTER:                 -10.931
REMARK INTRA:                  -0.610
REMARK UNBOUND:                -0.399
REMARK SMILES CO[C@H]1OC(OC(=O)c2cc(O)c(O)c(O)c2)[C@H](O)[C@@H](O)[C@@H]1O
REMARK SMILES IDX 7 1 8 2 6 3 5 4 3 5 22 6 4 7 20 8 18 9 2 10 1 11 23 12 21 14
REMARK SMILES IDX 19 16 9 18 17 19 10 20 15 21 11 22 13 23 16 24 12 26 14 28
REMARK H PARENT 23 13 21 15 19 17 16 25 12 27 14 29
ROOT
ATOM      1  C   UNL     1      16.046 -15.659  18.834  1.00  0.00     0.340 C 
ATOM      2  O   UNL     1      16.028 -15.111  17.744  1.00  0.00    -0.246 OA
ENDROOT
BRANCH   1   3
ATOM      3  O   UNL     1      15.872 -16.978  19.082  1.00  0.00    -0.429 OA
BRANCH   3   4
ATOM      4  C   UNL     1      16.201 -17.865  18.001  1.00  0.00     0.345 C 
ATOM      5  C   UNL     1      18.376 -18.275  18.887  1.00  0.00     0.285 C 
ATOM      6  C   UNL     1      18.025 -19.729  19.250  1.00  0.00     0.202 C 
ATOM      7  O   UNL     1      17.619 -17.836  17.765  1.00  0.00    -0.308 OA
ATOM      8  C   UNL     1      16.528 -19.849  19.512  1.00  0.00     0.183 C 
ATOM      9  C   UNL     1      15.739 -19.302  18.323  1.00  0.00     0.215 C 
BRANCH   5  10
ATOM     10  O   UNL     1      19.781 -18.263  18.588  1.00  0.00    -0.353 OA
ATOM     11  C   UNL     1      20.055 -18.839  17.316  1.00  0.00     0.198 C 
ENDBRANCH   5  10
BRANCH   6  12
ATOM     12  O   UNL     1      18.738 -20.169  20.418  1.00  0.00    -0.385 OA
ATOM     13  H   UNL     1      19.684 -20.133  20.168  1.00  0.00     0.211 HD
ENDBRANCH   6  12
BRANCH   8  14
ATOM     14  O   UNL     1      16.170 -21.227  19.718  1.00  0.00    -0.387 OA
ATOM     15  H   UNL     1      16.064 -21.318  20.688  1.00  0.00     0.211 HD
ENDBRANCH   8  14
BRANCH   9  16
ATOM     16  O   UNL     1      14.340 -19.376  18.619  1.00  0.00    -0.384 OA
ATOM     17  H   UNL     1      14.175 -18.652  19.256  1.00  0.00     0.211 HD
ENDBRANCH   9  16
ENDBRANCH   3   4
ENDBRANCH   1   3
BRANCH   1  18
ATOM     18  C   UNL     1      16.281 -14.920  20.103  1.00  0.00     0.067 A 
ATOM     19  C   UNL     1      15.905 -13.565  20.150  1.00  0.00     0.066 A 
ATOM     20  C   UNL     1      16.862 -15.528  21.228  1.00  0.00     0.066 A 
ATOM     21  C   UNL     1      16.109 -12.835  21.316  1.00  0.00     0.162 A 
ATOM     22  C   UNL     1      17.057 -14.778  22.381  1.00  0.00     0.162 A 
ATOM     23  C   UNL     1      16.683 -13.441  22.427  1.00  0.00     0.200 A 
BRANCH  21  24
ATOM     24  O   UNL     1      15.760 -11.518  21.419  1.00  0.00    -0.504 OA
ATOM     25  H   UNL     1      15.727 -11.281  22.365  1.00  0.00     0.293 HD
ENDBRANCH  21  24
BRANCH  22  26
ATOM     26  O   UNL     1      17.623 -15.368  23.473  1.00  0.00    -0.504 OA
ATOM     27  H   UNL     1      17.873 -14.622  24.056  1.00  0.00     0.293 HD
ENDBRANCH  22  26
BRANCH  23  28
ATOM     28  O   UNL     1      16.890 -12.733  23.579  1.00  0.00    -0.502 OA
ATOM     29  H   UNL     1      17.217 -13.400  24.218  1.00  0.00     0.293 HD
ENDBRANCH  23  28
ENDBRANCH   1  18
TORSDOF 10
ENDMDL
MODEL 5
REMARK VINA RESULT:    -7.873      2.341      7.658
REMARK INTER + INTRA:         -11.494
REMARK INTER:                 -11.409
REMARK INTRA:                  -0.085
REMARK UNBOUND:                -0.399
REMARK SMILES CO[C@H]1OC(OC(=O)c2cc(O)c(O)c(O)c2)[C@H](O)[C@@H](O)[C@@H]1O
REMARK SMILES IDX 7 1 8 2 6 3 5 4 3 5 22 6 4 7 20 8 18 9 2 10 1 11 23 12 21 14
REMARK SMILES IDX 19 16 9 18 17 19 10 20 15 21 11 22 13 23 16 24 12 26 14 28
REMARK H PARENT 23 13 21 15 19 17 16 25 12 27 14 29
ROOT
ATOM      1  C   UNL     1      16.304 -14.062  20.443  1.00  0.00     0.340 C 
ATOM      2  O   UNL     1      16.682 -13.554  19.400  1.00  0.00    -0.246 OA
ENDROOT
BRANCH   1   3
ATOM      3  O   UNL     1      15.780 -15.300  20.599  1.00  0.00    -0.429 OA
BRANCH   3   4
ATOM      4  C   UNL     1      16.727 -16.351  20.852  1.00  0.00     0.345 C 
ATOM      5  C   UNL     1      14.994 -17.969  21.105  1.00  0.00     0.285 C 
ATOM      6  C   UNL     1      15.379 -18.680  19.796  1.00  0.00     0.202 C 
ATOM      7  O   UNL     1      16.130 -17.348  21.698  1.00  0.00    -0.308 OA
ATOM      8  C   UNL     1      16.030 -17.688  18.839  1.00  0.00     0.183 C 
ATOM      9  C   UNL     1      17.199 -16.982  19.526  1.00  0.00     0.215 C 
BRANCH   5  10
ATOM     10  O   UNL     1      14.459 -18.981  21.972  1.00  0.00    -0.353 OA
ATOM     11  C   UNL     1      13.070 -18.790  22.211  1.00  0.00     0.198 C 
ENDBRANCH   5  10
BRANCH   6  12
ATOM     12  O   UNL     1      14.234 -19.262  19.154  1.00  0.00    -0.385 OA
ATOM     13  H   UNL     1      14.184 -18.828  18.278  1.00  0.00     0.211 HD
ENDBRANCH   6  12
BRANCH   8  14
ATOM     14  O   UNL     1      16.515 -18.371  17.670  1.00  0.00    -0.387 OA
ATOM     15  H   UNL     1      16.841 -19.234  17.998  1.00  0.00     0.211 HD
ENDBRANCH   8  14
BRANCH   9  16
ATOM     16  O   UNL     1      17.754 -16.018  18.624  1.00  0.00    -0.384 OA
ATOM     17  H   UNL     1      17.529 -15.148  19.011  1.00  0.00     0.211 HD
ENDBRANCH   9  16
ENDBRANCH   3   4
ENDBRANCH   1   3
BRANCH   1  18
ATOM     18  C   UNL     1      16.377 -13.362  21.753  1.00  0.00     0.067 A 
ATOM     19  C   UNL     1      17.152 -13.953  22.769  1.00  0.00     0.066 A 
ATOM     20  C   UNL     1      15.703 -12.155  21.996  1.00  0.00     0.066 A 
ATOM     21  C   UNL     1      17.246 -13.333  24.010  1.00  0.00     0.162 A 
ATOM     22  C   UNL     1      15.810 -11.555  23.244  1.00  0.00     0.162 A 
ATOM     23  C   UNL     1      16.576 -12.137  24.245  1.00  0.00     0.200 A 
BRANCH  21  24
ATOM     24  O   UNL     1      17.985 -13.859  25.031  1.00  0.00    -0.504 OA
ATOM     25  H   UNL     1      18.018 -13.207  25.755  1.00  0.00     0.293 HD
ENDBRANCH  21  24
BRANCH  22  26
ATOM     26  O   UNL     1      15.153 -10.383  23.480  1.00  0.00    -0.504 OA
ATOM     27  H   UNL     1      14.287 -10.490  23.037  1.00  0.00     0.293 HD
ENDBRANCH  22  26
BRANCH  23  28
ATOM     28  O   UNL     1      16.661 -11.519  25.463  1.00  0.00    -0.502 OA
ATOM     29  H   UNL     1      17.171 -10.702  25.285  1.00  0.00     0.293 HD
ENDBRANCH  23  28
ENDBRANCH   1  18
TORSDOF 10
ENDMDL
MODEL 6
REMARK VINA RESULT:    -7.854      3.206      8.441
REMARK INTER + INTRA:         -11.466
REMARK INTER:                 -10.894
REMARK INTRA:                  -0.573
REMARK UNBOUND:                -0.399
REMARK SMILES CO[C@H]1OC(OC(=O)c2cc(O)c(O)c(O)c2)[C@H](O)[C@@H](O)[C@@H]1O
REMARK SMILES IDX 7 1 8 2 6 3 5 4 3 5 22 6 4 7 20 8 18 9 2 10 1 11 23 12 21 14
REMARK SMILES IDX 19 16 9 18 17 19 10 20 15 21 11 22 13 23 16 24 12 26 14 28
REMARK H PARENT 23 13 21 15 19 17 16 25 12 27 14 29
ROOT
ATOM      1  C   UNL     1      16.005 -15.678  18.911  1.00  0.00     0.340 C 
ATOM      2  O   UNL     1      15.989 -15.193  17.792  1.00  0.00    -0.246 OA
ENDROOT
BRANCH   1   3
ATOM      3  O   UNL     1      15.844 -16.983  19.232  1.00  0.00    -0.429 OA
BRANCH   3   4
ATOM      4  C   UNL     1      16.112 -17.921  18.179  1.00  0.00     0.345 C 
ATOM      5  C   UNL     1      18.338 -18.285  18.952  1.00  0.00     0.285 C 
ATOM      6  C   UNL     1      18.015 -19.719  19.407  1.00  0.00     0.202 C 
ATOM      7  O   UNL     1      17.513 -17.903  17.856  1.00  0.00    -0.308 OA
ATOM      8  C   UNL     1      16.537 -19.828  19.763  1.00  0.00     0.183 C 
ATOM      9  C   UNL     1      15.676 -19.342  18.598  1.00  0.00     0.215 C 
BRANCH   5  10
ATOM     10  O   UNL     1      19.722 -18.286  18.568  1.00  0.00    -0.353 OA
ATOM     11  C   UNL     1      19.881 -18.468  17.166  1.00  0.00     0.198 C 
ENDBRANCH   5  10
BRANCH   6  12
ATOM     12  O   UNL     1      18.798 -20.100  20.549  1.00  0.00    -0.385 OA
ATOM     13  H   UNL     1      18.431 -19.583  21.295  1.00  0.00     0.211 HD
ENDBRANCH   6  12
BRANCH   8  14
ATOM     14  O   UNL     1      16.197 -21.194  20.059  1.00  0.00    -0.387 OA
ATOM     15  H   UNL     1      16.927 -21.725  19.677  1.00  0.00     0.211 HD
ENDBRANCH   8  14
BRANCH   9  16
ATOM     16  O   UNL     1      14.297 -19.402  18.981  1.00  0.00    -0.384 OA
ATOM     17  H   UNL     1      14.269 -20.024  19.736  1.00  0.00     0.211 HD
ENDBRANCH   9  16
ENDBRANCH   3   4
ENDBRANCH   1   3
BRANCH   1  18
ATOM     18  C   UNL     1      16.223 -14.865  20.138  1.00  0.00     0.067 A 
ATOM     19  C   UNL     1      16.843 -15.490  21.235  1.00  0.00     0.066 A 
ATOM     20  C   UNL     1      15.828 -13.521  20.225  1.00  0.00     0.066 A 
ATOM     21  C   UNL     1      17.064 -14.768  22.403  1.00  0.00     0.162 A 
ATOM     22  C   UNL     1      16.057 -12.820  21.402  1.00  0.00     0.162 A 
ATOM     23  C   UNL     1      16.671 -13.437  22.485  1.00  0.00     0.200 A 
BRANCH  21  24
ATOM     24  O   UNL     1      17.664 -15.323  23.498  1.00  0.00    -0.504 OA
ATOM     25  H   UNL     1      18.384 -14.732  23.786  1.00  0.00     0.293 HD
ENDBRANCH  21  24
BRANCH  22  26
ATOM     26  O   UNL     1      15.671 -11.514  21.489  1.00  0.00    -0.504 OA
ATOM     27  H   UNL     1      15.072 -11.382  20.725  1.00  0.00     0.293 HD
ENDBRANCH  22  26
BRANCH  23  28
ATOM     28  O   UNL     1      16.882 -12.717  23.629  1.00  0.00    -0.502 OA
ATOM     29  H   UNL     1      16.163 -13.003  24.231  1.00  0.00     0.293 HD
ENDBRANCH  23  28
ENDBRANCH   1  18
TORSDOF 10
ENDMDL
MODEL 7
REMARK VINA RESULT:    -7.067      5.447      8.886
REMARK INTER + INTRA:         -10.359
REMARK INTER:                  -9.794
REMARK INTRA:                  -0.565
REMARK UNBOUND:                -0.399
REMARK SMILES CO[C@H]1OC(OC(=O)c2cc(O)c(O)c(O)c2)[C@H](O)[C@@H](O)[C@@H]1O
REMARK SMILES IDX 7 1 8 2 6 3 5 4 3 5 22 6 4 7 20 8 18 9 2 10 1 11 23 12 21 14
REMARK SMILES IDX 19 16 9 18 17 19 10 20 15 21 11 22 13 23 16 24 12 26 14 28
REMARK H PARENT 23 13 21 15 19 17 16 25 12 27 14 29
ROOT
ATOM      1  C   UNL     1      14.571 -19.100  21.530  1.00  0.00     0.340 C 
ATOM      2  O   UNL     1      15.250 -20.057  21.866  1.00  0.00    -0.246 OA
ENDROOT
BRANCH   1   3
ATOM      3  O   UNL     1      15.009 -17.958  20.952  1.00  0.00    -0.429 OA
BRANCH   3   4
ATOM      4  C   UNL     1      16.433 -17.844  20.797  1.00  0.00     0.345 C 
ATOM      5  C   UNL     1      16.265 -17.898  18.420  1.00  0.00     0.285 C 
ATOM      6  C   UNL     1      16.681 -16.423  18.291  1.00  0.00     0.202 C 
ATOM      7  O   UNL     1      16.842 -18.489  19.580  1.00  0.00    -0.308 OA
ATOM      8  C   UNL     1      16.288 -15.663  19.553  1.00  0.00     0.183 C 
ATOM      9  C   UNL     1      16.857 -16.360  20.788  1.00  0.00     0.215 C 
BRANCH   5  10
ATOM     10  O   UNL     1      16.733 -18.554  17.230  1.00  0.00    -0.353 OA
ATOM     11  C   UNL     1      17.809 -19.442  17.506  1.00  0.00     0.198 C 
ENDBRANCH   5  10
BRANCH   6  12
ATOM     12  O   UNL     1      16.060 -15.795  17.158  1.00  0.00    -0.385 OA
ATOM     13  H   UNL     1      16.780 -15.301  16.714  1.00  0.00     0.211 HD
ENDBRANCH   6  12
BRANCH   8  14
ATOM     14  O   UNL     1      16.792 -14.317  19.499  1.00  0.00    -0.387 OA
ATOM     15  H   UNL     1      17.292 -14.201  20.333  1.00  0.00     0.211 HD
ENDBRANCH   8  14
BRANCH   9  16
ATOM     16  O   UNL     1      16.425 -15.657  21.959  1.00  0.00    -0.384 OA
ATOM     17  H   UNL     1      15.591 -16.094  22.225  1.00  0.00     0.211 HD
ENDBRANCH   9  16
ENDBRANCH   3   4
ENDBRANCH   1   3
BRANCH   1  18
ATOM     18  C   UNL     1      13.095 -19.057  21.711  1.00  0.00     0.067 A 
ATOM     19  C   UNL     1      12.601 -18.672  22.971  1.00  0.00     0.066 A 
ATOM     20  C   UNL     1      12.204 -19.387  20.678  1.00  0.00     0.066 A 
ATOM     21  C   UNL     1      11.228 -18.620  23.184  1.00  0.00     0.162 A 
ATOM     22  C   UNL     1      10.837 -19.329  20.915  1.00  0.00     0.162 A 
ATOM     23  C   UNL     1      10.350 -18.948  22.158  1.00  0.00     0.200 A 
BRANCH  21  24
ATOM     24  O   UNL     1      10.693 -18.251  24.386  1.00  0.00    -0.504 OA
ATOM     25  H   UNL     1      11.319 -18.498  25.091  1.00  0.00     0.293 HD
ENDBRANCH  21  24
BRANCH  22  26
ATOM     26  O   UNL     1       9.971 -19.653  19.911  1.00  0.00    -0.504 OA
ATOM     27  H   UNL     1      10.535 -19.744  19.116  1.00  0.00     0.293 HD
ENDBRANCH  22  26
BRANCH  23  28
ATOM     28  O   UNL     1       8.997 -18.901  22.357  1.00  0.00    -0.502 OA
ATOM     29  H   UNL     1       8.651 -19.663  21.846  1.00  0.00     0.293 HD
ENDBRANCH  23  28
ENDBRANCH   1  18
TORSDOF 10
ENDMDL
MODEL 8
REMARK VINA RESULT:    -6.915      5.271      8.606
REMARK INTER + INTRA:         -10.144
REMARK INTER:                  -9.316
REMARK INTRA:                  -0.828
REMARK UNBOUND:                -0.399
REMARK SMILES CO[C@H]1OC(OC(=O)c2cc(O)c(O)c(O)c2)[C@H](O)[C@@H](O)[C@@H]1O
REMARK SMILES IDX 7 1 8 2 6 3 5 4 3 5 22 6 4 7 20 8 18 9 2 10 1 11 23 12 21 14
REMARK SMILES IDX 19 16 9 18 17 19 10 20 15 21 11 22 13 23 16 24 12 26 14 28
REMARK H PARENT 23 13 21 15 19 17 16 25 12 27 14 29
ROOT
ATOM      1  C   UNL     1      15.667 -19.258  20.359  1.00  0.00     0.340 C 
ATOM      2  O   UNL     1      16.542 -20.093  20.518  1.00  0.00    -0.246 OA
ENDROOT
BRANCH   1   3
ATOM      3  O   UNL     1      14.330 -19.461  20.429  1.00  0.00    -0.429 OA
BRANCH   3   4
ATOM      4  C   UNL     1      13.818 -19.796  21.729  1.00  0.00     0.345 C 
ATOM      5  C   UNL     1      11.685 -18.858  21.224  1.00  0.00     0.285 C 
ATOM      6  C   UNL     1      11.010 -20.241  21.203  1.00  0.00     0.202 C 
ATOM      7  O   UNL     1      12.801 -18.853  22.107  1.00  0.00    -0.308 OA
ATOM      8  C   UNL     1      12.028 -21.307  20.814  1.00  0.00     0.183 C 
ATOM      9  C   UNL     1      13.248 -21.230  21.731  1.00  0.00     0.215 C 
BRANCH   5  10
ATOM     10  O   UNL     1      10.684 -17.928  21.666  1.00  0.00    -0.353 OA
ATOM     11  C   UNL     1      10.401 -18.076  23.053  1.00  0.00     0.198 C 
ENDBRANCH   5  10
BRANCH   6  12
ATOM     12  O   UNL     1       9.917 -20.281  20.272  1.00  0.00    -0.385 OA
ATOM     13  H   UNL     1       9.330 -19.543  20.535  1.00  0.00     0.211 HD
ENDBRANCH   6  12
BRANCH   8  14
ATOM     14  O   UNL     1      11.441 -22.616  20.923  1.00  0.00    -0.387 OA
ATOM     15  H   UNL     1      10.525 -22.511  20.594  1.00  0.00     0.211 HD
ENDBRANCH   8  14
BRANCH   9  16
ATOM     16  O   UNL     1      14.210 -22.204  21.307  1.00  0.00    -0.384 OA
ATOM     17  H   UNL     1      14.770 -22.368  22.092  1.00  0.00     0.211 HD
ENDBRANCH   9  16
ENDBRANCH   3   4
ENDBRANCH   1   3
BRANCH   1  18
ATOM     18  C   UNL     1      15.959 -17.831  20.059  1.00  0.00     0.067 A 
ATOM     19  C   UNL     1      16.049 -17.452  18.707  1.00  0.00     0.066 A 
ATOM     20  C   UNL     1      16.148 -16.876  21.071  1.00  0.00     0.066 A 
ATOM     21  C   UNL     1      16.323 -16.128  18.381  1.00  0.00     0.162 A 
ATOM     22  C   UNL     1      16.422 -15.560  20.721  1.00  0.00     0.162 A 
ATOM     23  C   UNL     1      16.509 -15.186  19.387  1.00  0.00     0.200 A 
BRANCH  21  24
ATOM     24  O   UNL     1      16.419 -15.703  17.086  1.00  0.00    -0.504 OA
ATOM     25  H   UNL     1      17.212 -15.141  17.004  1.00  0.00     0.293 HD
ENDBRANCH  21  24
BRANCH  22  26
ATOM     26  O   UNL     1      16.608 -14.633  21.705  1.00  0.00    -0.504 OA
ATOM     27  H   UNL     1      16.100 -13.850  21.407  1.00  0.00     0.293 HD
ENDBRANCH  22  26
BRANCH  23  28
ATOM     28  O   UNL     1      16.780 -13.881  19.078  1.00  0.00    -0.502 OA
ATOM     29  H   UNL     1      16.131 -13.368  19.602  1.00  0.00     0.293 HD
ENDBRANCH  23  28
ENDBRANCH   1  18
TORSDOF 10
ENDMDL
MODEL 9
REMARK VINA RESULT:    -6.885      5.298      8.756
REMARK INTER + INTRA:         -10.101
REMARK INTER:                  -9.279
REMARK INTRA:                  -0.821
REMARK UNBOUND:                -0.399
REMARK SMILES CO[C@H]1OC(OC(=O)c2cc(O)c(O)c(O)c2)[C@H](O)[C@@H](O)[C@@H]1O
REMARK SMILES IDX 7 1 8 2 6 3 5 4 3 5 22 6 4 7 20 8 18 9 2 10 1 11 23 12 21 14
REMARK SMILES IDX 19 16 9 18 17 19 10 20 15 21 11 22 13 23 16 24 12 26 14 28
REMARK H PARENT 23 13 21 15 19 17 16 25 12 27 14 29
ROOT
ATOM      1  C   UNL     1      15.649 -19.315  20.323  1.00  0.00     0.340 C 
ATOM      2  O   UNL     1      16.528 -20.142  20.506  1.00  0.00    -0.246 OA
ENDROOT
BRANCH   1   3
ATOM      3  O   UNL     1      14.314 -19.520  20.398  1.00  0.00    -0.429 OA
BRANCH   3   4
ATOM      4  C   UNL     1      13.804 -19.836  21.703  1.00  0.00     0.345 C 
ATOM      5  C   UNL     1      11.672 -18.899  21.193  1.00  0.00     0.285 C 
ATOM      6  C   UNL     1      10.993 -20.280  21.191  1.00  0.00     0.202 C 
ATOM      7  O   UNL     1      12.792 -18.886  22.073  1.00  0.00    -0.308 OA
ATOM      8  C   UNL     1      12.007 -21.354  20.814  1.00  0.00     0.183 C 
ATOM      9  C   UNL     1      13.230 -21.269  21.726  1.00  0.00     0.215 C 
BRANCH   5  10
ATOM     10  O   UNL     1      10.676 -17.960  21.626  1.00  0.00    -0.353 OA
ATOM     11  C   UNL     1      10.405 -18.082  23.017  1.00  0.00     0.198 C 
ENDBRANCH   5  10
BRANCH   6  12
ATOM     12  O   UNL     1       9.897 -20.328  20.264  1.00  0.00    -0.385 OA
ATOM     13  H   UNL     1      10.308 -20.489  19.390  1.00  0.00     0.211 HD
ENDBRANCH   6  12
BRANCH   8  14
ATOM     14  O   UNL     1      11.416 -22.660  20.941  1.00  0.00    -0.387 OA
ATOM     15  H   UNL     1      11.803 -23.184  20.210  1.00  0.00     0.211 HD
ENDBRANCH   8  14
BRANCH   9  16
ATOM     16  O   UNL     1      14.187 -22.251  21.312  1.00  0.00    -0.384 OA
ATOM     17  H   UNL     1      14.759 -21.794  20.664  1.00  0.00     0.211 HD
ENDBRANCH   9  16
ENDBRANCH   3   4
ENDBRANCH   1   3
BRANCH   1  18
ATOM     18  C   UNL     1      15.937 -17.896  19.982  1.00  0.00     0.067 A 
ATOM     19  C   UNL     1      16.119 -16.992  21.044  1.00  0.00     0.066 A 
ATOM     20  C   UNL     1      16.025 -17.448  18.654  1.00  0.00     0.066 A 
ATOM     21  C   UNL     1      16.388 -15.655  20.770  1.00  0.00     0.162 A 
ATOM     22  C   UNL     1      16.294 -16.108  18.405  1.00  0.00     0.162 A 
ATOM     23  C   UNL     1      16.475 -15.217  19.454  1.00  0.00     0.200 A 
BRANCH  21  24
ATOM     24  O   UNL     1      16.576 -14.734  21.762  1.00  0.00    -0.504 OA
ATOM     25  H   UNL     1      17.463 -14.869  22.143  1.00  0.00     0.293 HD
ENDBRANCH  21  24
BRANCH  22  26
ATOM     26  O   UNL     1      16.377 -15.672  17.115  1.00  0.00    -0.504 OA
ATOM     27  H   UNL     1      17.273 -15.936  16.821  1.00  0.00     0.293 HD
ENDBRANCH  22  26
BRANCH  23  28
ATOM     28  O   UNL     1      16.738 -13.904  19.173  1.00  0.00    -0.502 OA
ATOM     29  H   UNL     1      15.895 -13.442  19.365  1.00  0.00     0.293 HD
ENDBRANCH  23  28
ENDBRANCH   1  18
TORSDOF 10
ENDMDL
