MODEL 1
REMARK VINA RESULT:    -8.166      0.000      0.000
REMARK INTER + INTRA:         -11.899
REMARK INTER:                 -11.507
REMARK INTRA:                  -0.392
REMARK UNBOUND:                -0.392
REMARK SMILES CO[C@H]1OC(OC(=O)c2cc(O)c(O)c(O)c2)[C@H](O)[C@@H](O)[C@@H]1O
REMARK SMILES IDX 7 1 8 2 6 3 5 4 3 5 22 6 4 7 20 8 18 9 2 10 1 11 23 12 21 14
REMARK SMILES IDX 19 16 9 18 17 19 10 20 15 21 11 22 13 23 16 24 12 26 14 28
REMARK H PARENT 23 13 21 15 19 17 16 25 12 27 14 29
ROOT
ATOM      1  C   UNL     1      16.017 -12.336  22.864  1.00  0.00     0.340 C 
ATOM      2  O   UNL     1      15.581 -11.282  22.431  1.00  0.00    -0.246 OA
ENDROOT
BRANCH   1   3
ATOM      3  O   UNL     1      16.236 -12.651  24.162  1.00  0.00    -0.429 OA
BRANCH   3   4
ATOM      4  C   UNL     1      17.395 -12.052  24.762  1.00  0.00     0.345 C 
ATOM      5  C   UNL     1      16.073 -10.426  25.898  1.00  0.00     0.285 C 
ATOM      6  C   UNL     1      16.361 -11.056  27.272  1.00  0.00     0.202 C 
ATOM      7  O   UNL     1      17.152 -10.655  24.998  1.00  0.00    -0.308 OA
ATOM      8  C   UNL     1      16.639 -12.546  27.109  1.00  0.00     0.183 C 
ATOM      9  C   UNL     1      17.750 -12.767  26.083  1.00  0.00     0.215 C 
BRANCH   5  10
ATOM     10  O   UNL     1      15.895  -9.020  26.129  1.00  0.00    -0.353 OA
ATOM     11  C   UNL     1      17.020  -8.446  26.783  1.00  0.00     0.198 C 
ENDBRANCH   5  10
BRANCH   6  12
ATOM     12  O   UNL     1      15.257 -10.885  28.174  1.00  0.00    -0.385 OA
ATOM     13  H   UNL     1      14.633 -11.607  27.955  1.00  0.00     0.211 HD
ENDBRANCH   6  12
BRANCH   8  14
ATOM     14  O   UNL     1      17.042 -13.116  28.367  1.00  0.00    -0.387 OA
ATOM     15  H   UNL     1      16.714 -14.039  28.343  1.00  0.00     0.211 HD
ENDBRANCH   8  14
BRANCH   9  16
ATOM     16  O   UNL     1      17.950 -14.174  25.910  1.00  0.00    -0.384 OA
ATOM     17  H   UNL     1      17.142 -14.494  25.459  1.00  0.00     0.211 HD
ENDBRANCH   9  16
ENDBRANCH   3   4
ENDBRANCH   1   3
BRANCH   1  18
ATOM     18  C   UNL     1      16.378 -13.480  21.984  1.00  0.00     0.067 A 
ATOM     19  C   UNL     1      16.055 -13.382  20.618  1.00  0.00     0.066 A 
ATOM     20  C   UNL     1      17.016 -14.630  22.476  1.00  0.00     0.066 A 
ATOM     21  C   UNL     1      16.373 -14.429  19.761  1.00  0.00     0.162 A 
ATOM     22  C   UNL     1      17.322 -15.664  21.600  1.00  0.00     0.162 A 
ATOM     23  C   UNL     1      17.004 -15.566  20.252  1.00  0.00     0.200 A 
BRANCH  21  24
ATOM     24  O   UNL     1      16.086 -14.388  18.425  1.00  0.00    -0.504 OA
ATOM     25  H   UNL     1      16.184 -15.287  18.061  1.00  0.00     0.293 HD
ENDBRANCH  21  24
BRANCH  22  26
ATOM     26  O   UNL     1      17.939 -16.783  22.078  1.00  0.00    -0.504 OA
ATOM     27  H   UNL     1      17.335 -17.518  21.846  1.00  0.00     0.293 HD
ENDBRANCH  22  26
BRANCH  23  28
ATOM     28  O   UNL     1      17.321 -16.603  19.417  1.00  0.00    -0.502 OA
ATOM     29  H   UNL     1      17.412 -17.375  20.014  1.00  0.00     0.293 HD
ENDBRANCH  23  28
ENDBRANCH   1  18
TORSDOF 10
ENDMDL
MODEL 2
REMARK VINA RESULT:    -8.096      2.377      7.653
REMARK INTER + INTRA:         -11.801
REMARK INTER:                 -11.646
REMARK INTRA:                  -0.155
REMARK UNBOUND:                -0.392
REMARK SMILES CO[C@H]1OC(OC(=O)c2cc(O)c(O)c(O)c2)[C@H](O)[C@@H](O)[C@@H]1O
REMARK SMILES IDX 7 1 8 2 6 3 5 4 3 5 22 6 4 7 20 8 18 9 2 10 1 11 23 12 21 14
REMARK SMILES IDX 19 16 9 18 17 19 10 20 15 21 11 22 13 23 16 24 12 26 14 28
REMARK H PARENT 23 13 21 15 19 17 16 25 12 27 14 29
ROOT
ATOM      1  C   UNL     1      16.332 -14.208  20.306  1.00  0.00     0.340 C 
ATOM      2  O   UNL     1      16.652 -13.668  19.260  1.00  0.00    -0.246 OA
ENDROOT
BRANCH   1   3
ATOM      3  O   UNL     1      15.832 -15.456  20.455  1.00  0.00    -0.429 OA
BRANCH   3   4
ATOM      4  C   UNL     1      16.802 -16.513  20.524  1.00  0.00     0.345 C 
ATOM      5  C   UNL     1      15.108 -18.169  20.789  1.00  0.00     0.285 C 
ATOM      6  C   UNL     1      15.372 -18.756  19.392  1.00  0.00     0.202 C 
ATOM      7  O   UNL     1      16.292 -17.589  21.328  1.00  0.00    -0.308 OA
ATOM      8  C   UNL     1      15.925 -17.674  18.472  1.00  0.00     0.183 C 
ATOM      9  C   UNL     1      17.151 -17.018  19.108  1.00  0.00     0.215 C 
BRANCH   5  10
ATOM     10  O   UNL     1      14.660 -19.261  21.608  1.00  0.00    -0.353 OA
ATOM     11  C   UNL     1      13.352 -19.035  22.119  1.00  0.00     0.198 C 
ENDBRANCH   5  10
BRANCH   6  12
ATOM     12  O   UNL     1      14.173 -19.293  18.809  1.00  0.00    -0.385 OA
ATOM     13  H   UNL     1      14.009 -20.130  19.289  1.00  0.00     0.211 HD
ENDBRANCH   6  12
BRANCH   8  14
ATOM     14  O   UNL     1      16.302 -18.245  17.206  1.00  0.00    -0.387 OA
ATOM     15  H   UNL     1      16.745 -19.089  17.431  1.00  0.00     0.211 HD
ENDBRANCH   8  14
BRANCH   9  16
ATOM     16  O   UNL     1      17.615 -15.971  18.249  1.00  0.00    -0.384 OA
ATOM     17  H   UNL     1      17.297 -16.212  17.356  1.00  0.00     0.211 HD
ENDBRANCH   9  16
ENDBRANCH   3   4
ENDBRANCH   1   3
BRANCH   1  18
ATOM     18  C   UNL     1      16.462 -13.540  21.629  1.00  0.00     0.067 A 
ATOM     19  C   UNL     1      15.968 -12.228  21.751  1.00  0.00     0.066 A 
ATOM     20  C   UNL     1      17.056 -14.173  22.732  1.00  0.00     0.066 A 
ATOM     21  C   UNL     1      16.070 -11.566  22.970  1.00  0.00     0.162 A 
ATOM     22  C   UNL     1      17.148 -13.492  23.939  1.00  0.00     0.162 A 
ATOM     23  C   UNL     1      16.659 -12.197  24.059  1.00  0.00     0.200 A 
BRANCH  21  24
ATOM     24  O   UNL     1      15.606 -10.293  23.146  1.00  0.00    -0.504 OA
ATOM     25  H   UNL     1      14.634 -10.327  23.212  1.00  0.00     0.293 HD
ENDBRANCH  21  24
BRANCH  22  26
ATOM     26  O   UNL     1      17.727 -14.106  25.011  1.00  0.00    -0.504 OA
ATOM     27  H   UNL     1      18.387 -13.462  25.339  1.00  0.00     0.293 HD
ENDBRANCH  22  26
BRANCH  23  28
ATOM     28  O   UNL     1      16.766 -11.555  25.263  1.00  0.00    -0.502 OA
ATOM     29  H   UNL     1      16.836 -10.607  25.026  1.00  0.00     0.293 HD
ENDBRANCH  23  28
ENDBRANCH   1  18
TORSDOF 10
ENDMDL
MODEL 3
REMARK VINA RESULT:    -8.038      2.153      7.528
REMARK INTER + INTRA:         -11.718
REMARK INTER:                 -11.249
REMARK INTRA:                  -0.470
REMARK UNBOUND:                -0.392
REMARK SMILES CO[C@H]1OC(OC(=O)c2cc(O)c(O)c(O)c2)[C@H](O)[C@@H](O)[C@@H]1O
REMARK SMILES IDX 7 1 8 2 6 3 5 4 3 5 22 6 4 7 20 8 18 9 2 10 1 11 23 12 21 14
REMARK SMILES IDX 19 16 9 18 17 19 10 20 15 21 11 22 13 23 16 24 12 26 14 28
REMARK H PARENT 23 13 21 15 19 17 16 25 12 27 14 29
ROOT
ATOM      1  C   UNL     1      16.429 -14.169  20.716  1.00  0.00     0.340 C 
ATOM      2  O   UNL     1      16.285 -13.586  19.654  1.00  0.00    -0.246 OA
ENDROOT
BRANCH   1   3
ATOM      3  O   UNL     1      16.464 -15.508  20.909  1.00  0.00    -0.429 OA
BRANCH   3   4
ATOM      4  C   UNL     1      16.012 -16.309  19.806  1.00  0.00     0.345 C 
ATOM      5  C   UNL     1      18.197 -17.187  19.437  1.00  0.00     0.285 C 
ATOM      6  C   UNL     1      17.785 -18.590  19.916  1.00  0.00     0.202 C 
ATOM      7  O   UNL     1      17.087 -16.498  18.871  1.00  0.00    -0.308 OA
ATOM      8  C   UNL     1      16.637 -18.479  20.913  1.00  0.00     0.183 C 
ATOM      9  C   UNL     1      15.489 -17.672  20.307  1.00  0.00     0.215 C 
BRANCH   5  10
ATOM     10  O   UNL     1      19.227 -17.383  18.454  1.00  0.00    -0.353 OA
ATOM     11  C   UNL     1      18.806 -18.262  17.418  1.00  0.00     0.198 C 
ENDBRANCH   5  10
BRANCH   6  12
ATOM     12  O   UNL     1      18.880 -19.277  20.543  1.00  0.00    -0.385 OA
ATOM     13  H   UNL     1      18.853 -18.998  21.481  1.00  0.00     0.211 HD
ENDBRANCH   6  12
BRANCH   8  14
ATOM     14  O   UNL     1      16.156 -19.789  21.262  1.00  0.00    -0.387 OA
ATOM     15  H   UNL     1      15.496 -20.009  20.572  1.00  0.00     0.211 HD
ENDBRANCH   8  14
BRANCH   9  16
ATOM     16  O   UNL     1      14.450 -17.537  21.284  1.00  0.00    -0.384 OA
ATOM     17  H   UNL     1      13.694 -17.147  20.801  1.00  0.00     0.211 HD
ENDBRANCH   9  16
ENDBRANCH   3   4
ENDBRANCH   1   3
BRANCH   1  18
ATOM     18  C   UNL     1      16.601 -13.454  22.009  1.00  0.00     0.067 A 
ATOM     19  C   UNL     1      16.198 -12.107  22.072  1.00  0.00     0.066 A 
ATOM     20  C   UNL     1      17.150 -14.077  23.142  1.00  0.00     0.066 A 
ATOM     21  C   UNL     1      16.343 -11.401  23.260  1.00  0.00     0.162 A 
ATOM     22  C   UNL     1      17.287 -13.350  24.318  1.00  0.00     0.162 A 
ATOM     23  C   UNL     1      16.886 -12.022  24.379  1.00  0.00     0.200 A 
BRANCH  21  24
ATOM     24  O   UNL     1      15.966 -10.093  23.379  1.00  0.00    -0.504 OA
ATOM     25  H   UNL     1      16.633  -9.539  22.933  1.00  0.00     0.293 HD
ENDBRANCH  21  24
BRANCH  22  26
ATOM     26  O   UNL     1      17.822 -13.954  25.418  1.00  0.00    -0.504 OA
ATOM     27  H   UNL     1      18.536 -13.352  25.709  1.00  0.00     0.293 HD
ENDBRANCH  22  26
BRANCH  23  28
ATOM     28  O   UNL     1      17.035 -11.336  25.554  1.00  0.00    -0.502 OA
ATOM     29  H   UNL     1      16.628 -11.919  26.228  1.00  0.00     0.293 HD
ENDBRANCH  23  28
ENDBRANCH   1  18
TORSDOF 10
ENDMDL
MODEL 4
REMARK VINA RESULT:    -7.929      3.224      8.340
REMARK INTER + INTRA:         -11.565
REMARK INTER:                 -10.964
REMARK INTRA:                  -0.601
REMARK UNBOUND:                -0.392
REMARK SMILES CO[C@H]1OC(OC(=O)c2cc(O)c(O)c(O)c2)[C@H](O)[C@@H](O)[C@@H]1O
REMARK SMILES IDX 7 1 8 2 6 3 5 4 3 5 22 6 4 7 20 8 18 9 2 10 1 11 23 12 21 14
REMARK SMILES IDX 19 16 9 18 17 19 10 20 15 21 11 22 13 23 16 24 12 26 14 28
REMARK H PARENT 23 13 21 15 19 17 16 25 12 27 14 29
ROOT
ATOM      1  C   UNL     1      16.023 -15.687  18.856  1.00  0.00     0.340 C 
ATOM      2  O   UNL     1      16.008 -15.143  17.764  1.00  0.00    -0.246 OA
ENDROOT
BRANCH   1   3
ATOM      3  O   UNL     1      15.841 -17.004  19.109  1.00  0.00    -0.429 OA
BRANCH   3   4
ATOM      4  C   UNL     1      16.173 -17.896  18.034  1.00  0.00     0.345 C 
ATOM      5  C   UNL     1      18.351 -18.293  18.921  1.00  0.00     0.285 C 
ATOM      6  C   UNL     1      18.005 -19.745  19.294  1.00  0.00     0.202 C 
ATOM      7  O   UNL     1      17.590 -17.864  17.796  1.00  0.00    -0.308 OA
ATOM      8  C   UNL     1      16.509 -19.869  19.558  1.00  0.00     0.183 C 
ATOM      9  C   UNL     1      15.717 -19.333  18.365  1.00  0.00     0.215 C 
BRANCH   5  10
ATOM     10  O   UNL     1      19.755 -18.277  18.619  1.00  0.00    -0.353 OA
ATOM     11  C   UNL     1      20.014 -18.704  17.287  1.00  0.00     0.198 C 
ENDBRANCH   5  10
BRANCH   6  12
ATOM     12  O   UNL     1      18.721 -20.174  20.464  1.00  0.00    -0.385 OA
ATOM     13  H   UNL     1      18.062 -20.153  21.188  1.00  0.00     0.211 HD
ENDBRANCH   6  12
BRANCH   8  14
ATOM     14  O   UNL     1      16.156 -21.247  19.774  1.00  0.00    -0.387 OA
ATOM     15  H   UNL     1      15.736 -21.264  20.659  1.00  0.00     0.211 HD
ENDBRANCH   8  14
BRANCH   9  16
ATOM     16  O   UNL     1      14.318 -19.411  18.664  1.00  0.00    -0.384 OA
ATOM     17  H   UNL     1      14.015 -18.482  18.709  1.00  0.00     0.211 HD
ENDBRANCH   9  16
ENDBRANCH   3   4
ENDBRANCH   1   3
BRANCH   1  18
ATOM     18  C   UNL     1      16.264 -14.944  20.122  1.00  0.00     0.067 A 
ATOM     19  C   UNL     1      15.871 -13.594  20.174  1.00  0.00     0.066 A 
ATOM     20  C   UNL     1      16.865 -15.545  21.240  1.00  0.00     0.066 A 
ATOM     21  C   UNL     1      16.080 -12.862  21.337  1.00  0.00     0.162 A 
ATOM     22  C   UNL     1      17.064 -14.793  22.391  1.00  0.00     0.162 A 
ATOM     23  C   UNL     1      16.674 -13.461  22.442  1.00  0.00     0.200 A 
BRANCH  21  24
ATOM     24  O   UNL     1      15.716 -11.549  21.445  1.00  0.00    -0.504 OA
ATOM     25  H   UNL     1      16.099 -11.061  20.692  1.00  0.00     0.293 HD
ENDBRANCH  21  24
BRANCH  22  26
ATOM     26  O   UNL     1      17.649 -15.376  23.476  1.00  0.00    -0.504 OA
ATOM     27  H   UNL     1      18.597 -15.444  23.240  1.00  0.00     0.293 HD
ENDBRANCH  22  26
BRANCH  23  28
ATOM     28  O   UNL     1      16.885 -12.750  23.591  1.00  0.00    -0.502 OA
ATOM     29  H   UNL     1      17.525 -12.054  23.332  1.00  0.00     0.293 HD
ENDBRANCH  23  28
ENDBRANCH   1  18
TORSDOF 10
ENDMDL
MODEL 5
REMARK VINA RESULT:    -7.869      3.193      8.440
REMARK INTER + INTRA:         -11.481
REMARK INTER:                 -10.904
REMARK INTRA:                  -0.578
REMARK UNBOUND:                -0.392
REMARK SMILES CO[C@H]1OC(OC(=O)c2cc(O)c(O)c(O)c2)[C@H](O)[C@@H](O)[C@@H]1O
REMARK SMILES IDX 7 1 8 2 6 3 5 4 3 5 22 6 4 7 20 8 18 9 2 10 1 11 23 12 21 14
REMARK SMILES IDX 19 16 9 18 17 19 10 20 15 21 11 22 13 23 16 24 12 26 14 28
REMARK H PARENT 23 13 21 15 19 17 16 25 12 27 14 29
ROOT
ATOM      1  C   UNL     1      16.010 -15.673  18.904  1.00  0.00     0.340 C 
ATOM      2  O   UNL     1      15.995 -15.184  17.786  1.00  0.00    -0.246 OA
ENDROOT
BRANCH   1   3
ATOM      3  O   UNL     1      15.854 -16.979  19.220  1.00  0.00    -0.429 OA
BRANCH   3   4
ATOM      4  C   UNL     1      16.129 -17.914  18.164  1.00  0.00     0.345 C 
ATOM      5  C   UNL     1      18.353 -18.272  18.945  1.00  0.00     0.285 C 
ATOM      6  C   UNL     1      18.034 -19.709  19.394  1.00  0.00     0.202 C 
ATOM      7  O   UNL     1      17.531 -17.889  17.848  1.00  0.00    -0.308 OA
ATOM      8  C   UNL     1      16.555 -19.824  19.744  1.00  0.00     0.183 C 
ATOM      9  C   UNL     1      15.697 -19.337  18.577  1.00  0.00     0.215 C 
BRANCH   5  10
ATOM     10  O   UNL     1      19.739 -18.266  18.567  1.00  0.00    -0.353 OA
ATOM     11  C   UNL     1      19.916 -18.644  17.207  1.00  0.00     0.198 C 
ENDBRANCH   5  10
BRANCH   6  12
ATOM     12  O   UNL     1      18.814 -20.091  20.538  1.00  0.00    -0.385 OA
ATOM     13  H   UNL     1      19.549 -20.627  20.179  1.00  0.00     0.211 HD
ENDBRANCH   6  12
BRANCH   8  14
ATOM     14  O   UNL     1      16.219 -21.193  20.033  1.00  0.00    -0.387 OA
ATOM     15  H   UNL     1      16.463 -21.689  19.225  1.00  0.00     0.211 HD
ENDBRANCH   8  14
BRANCH   9  16
ATOM     16  O   UNL     1      14.317 -19.404  18.955  1.00  0.00    -0.384 OA
ATOM     17  H   UNL     1      13.969 -20.202  18.510  1.00  0.00     0.211 HD
ENDBRANCH   9  16
ENDBRANCH   3   4
ENDBRANCH   1   3
BRANCH   1  18
ATOM     18  C   UNL     1      16.221 -14.863  20.134  1.00  0.00     0.067 A 
ATOM     19  C   UNL     1      16.838 -15.491  21.232  1.00  0.00     0.066 A 
ATOM     20  C   UNL     1      15.824 -13.520  20.224  1.00  0.00     0.066 A 
ATOM     21  C   UNL     1      17.053 -14.772  22.403  1.00  0.00     0.162 A 
ATOM     22  C   UNL     1      16.048 -12.823  21.404  1.00  0.00     0.162 A 
ATOM     23  C   UNL     1      16.658 -13.442  22.487  1.00  0.00     0.200 A 
BRANCH  21  24
ATOM     24  O   UNL     1      17.649 -15.329  23.499  1.00  0.00    -0.504 OA
ATOM     25  H   UNL     1      18.135 -16.125  23.214  1.00  0.00     0.293 HD
ENDBRANCH  21  24
BRANCH  22  26
ATOM     26  O   UNL     1      15.659 -11.518  21.492  1.00  0.00    -0.504 OA
ATOM     27  H   UNL     1      14.795 -11.546  21.951  1.00  0.00     0.293 HD
ENDBRANCH  22  26
BRANCH  23  28
ATOM     28  O   UNL     1      16.863 -12.725  23.634  1.00  0.00    -0.502 OA
ATOM     29  H   UNL     1      17.830 -12.780  23.784  1.00  0.00     0.293 HD
ENDBRANCH  23  28
ENDBRANCH   1  18
TORSDOF 10
ENDMDL
MODEL 6
REMARK VINA RESULT:    -7.847      2.383      7.723
REMARK INTER + INTRA:         -11.450
REMARK INTER:                 -11.427
REMARK INTRA:                  -0.023
REMARK UNBOUND:                -0.392
REMARK SMILES CO[C@H]1OC(OC(=O)c2cc(O)c(O)c(O)c2)[C@H](O)[C@@H](O)[C@@H]1O
REMARK SMILES IDX 7 1 8 2 6 3 5 4 3 5 22 6 4 7 20 8 18 9 2 10 1 11 23 12 21 14
REMARK SMILES IDX 19 16 9 18 17 19 10 20 15 21 11 22 13 23 16 24 12 26 14 28
REMARK H PARENT 23 13 21 15 19 17 16 25 12 27 14 29
ROOT
ATOM      1  C   UNL     1      16.300 -14.166  20.409  1.00  0.00     0.340 C 
ATOM      2  O   UNL     1      16.710 -13.686  19.364  1.00  0.00    -0.246 OA
ENDROOT
BRANCH   1   3
ATOM      3  O   UNL     1      15.737 -15.385  20.576  1.00  0.00    -0.429 OA
BRANCH   3   4
ATOM      4  C   UNL     1      16.649 -16.462  20.841  1.00  0.00     0.345 C 
ATOM      5  C   UNL     1      14.881 -18.061  20.895  1.00  0.00     0.285 C 
ATOM      6  C   UNL     1      15.345 -18.715  19.582  1.00  0.00     0.202 C 
ATOM      7  O   UNL     1      15.983 -17.489  21.593  1.00  0.00    -0.308 OA
ATOM      8  C   UNL     1      16.073 -17.689  18.722  1.00  0.00     0.183 C 
ATOM      9  C   UNL     1      17.202 -17.038  19.519  1.00  0.00     0.215 C 
BRANCH   5  10
ATOM     10  O   UNL     1      14.274 -19.104  21.673  1.00  0.00    -0.353 OA
ATOM     11  C   UNL     1      12.938 -18.780  22.040  1.00  0.00     0.198 C 
ENDBRANCH   5  10
BRANCH   6  12
ATOM     12  O   UNL     1      14.237 -19.245  18.836  1.00  0.00    -0.385 OA
ATOM     13  H   UNL     1      13.524 -18.581  18.931  1.00  0.00     0.211 HD
ENDBRANCH   6  12
BRANCH   8  14
ATOM     14  O   UNL     1      16.627 -18.323  17.555  1.00  0.00    -0.387 OA
ATOM     15  H   UNL     1      17.458 -17.837  17.375  1.00  0.00     0.211 HD
ENDBRANCH   8  14
BRANCH   9  16
ATOM     16  O   UNL     1      17.830 -16.040  18.706  1.00  0.00    -0.384 OA
ATOM     17  H   UNL     1      18.434 -16.534  18.116  1.00  0.00     0.211 HD
ENDBRANCH   9  16
ENDBRANCH   3   4
ENDBRANCH   1   3
BRANCH   1  18
ATOM     18  C   UNL     1      16.372 -13.446  21.708  1.00  0.00     0.067 A 
ATOM     19  C   UNL     1      17.111 -14.042  22.747  1.00  0.00     0.066 A 
ATOM     20  C   UNL     1      15.731 -12.215  21.919  1.00  0.00     0.066 A 
ATOM     21  C   UNL     1      17.203 -13.404  23.979  1.00  0.00     0.162 A 
ATOM     22  C   UNL     1      15.836 -11.597  23.159  1.00  0.00     0.162 A 
ATOM     23  C   UNL     1      16.566 -12.186  24.183  1.00  0.00     0.200 A 
BRANCH  21  24
ATOM     24  O   UNL     1      17.909 -13.936  25.022  1.00  0.00    -0.504 OA
ATOM     25  H   UNL     1      18.595 -13.295  25.287  1.00  0.00     0.293 HD
ENDBRANCH  21  24
BRANCH  22  26
ATOM     26  O   UNL     1      15.210 -10.402  23.365  1.00  0.00    -0.504 OA
ATOM     27  H   UNL     1      15.194  -9.975  22.484  1.00  0.00     0.293 HD
ENDBRANCH  22  26
BRANCH  23  28
ATOM     28  O   UNL     1      16.649 -11.550  25.392  1.00  0.00    -0.502 OA
ATOM     29  H   UNL     1      16.433 -10.616  25.189  1.00  0.00     0.293 HD
ENDBRANCH  23  28
ENDBRANCH   1  18
TORSDOF 10
ENDMDL
MODEL 7
REMARK VINA RESULT:    -7.234      1.193      2.605
REMARK INTER + INTRA:         -10.586
REMARK INTER:                 -10.104
REMARK INTRA:                  -0.482
REMARK UNBOUND:                -0.392
REMARK SMILES CO[C@H]1OC(OC(=O)c2cc(O)c(O)c(O)c2)[C@H](O)[C@@H](O)[C@@H]1O
REMARK SMILES IDX 7 1 8 2 6 3 5 4 3 5 22 6 4 7 20 8 18 9 2 10 1 11 23 12 21 14
REMARK SMILES IDX 19 16 9 18 17 19 10 20 15 21 11 22 13 23 16 24 12 26 14 28
REMARK H PARENT 23 13 21 15 19 17 16 25 12 27 14 29
ROOT
ATOM      1  C   UNL     1      16.104 -12.394  22.115  1.00  0.00     0.340 C 
ATOM      2  O   UNL     1      15.428 -11.515  21.605  1.00  0.00    -0.246 OA
ENDROOT
BRANCH   1   3
ATOM      3  O   UNL     1      16.644 -12.386  23.356  1.00  0.00    -0.429 OA
BRANCH   3   4
ATOM      4  C   UNL     1      15.718 -12.564  24.439  1.00  0.00     0.345 C 
ATOM      5  C   UNL     1      17.480 -12.659  26.043  1.00  0.00     0.285 C 
ATOM      6  C   UNL     1      17.087 -11.301  26.651  1.00  0.00     0.202 C 
ATOM      7  O   UNL     1      16.343 -13.316  25.493  1.00  0.00    -0.308 OA
ATOM      8  C   UNL     1      16.406 -10.439  25.594  1.00  0.00     0.183 C 
ATOM      9  C   UNL     1      15.236 -11.197  24.968  1.00  0.00     0.215 C 
BRANCH   5  10
ATOM     10  O   UNL     1      18.044 -13.432  27.114  1.00  0.00    -0.353 OA
ATOM     11  C   UNL     1      17.075 -13.743  28.107  1.00  0.00     0.198 C 
ENDBRANCH   5  10
BRANCH   6  12
ATOM     12  O   UNL     1      18.232 -10.598  27.158  1.00  0.00    -0.385 OA
ATOM     13  H   UNL     1      18.065  -9.655  26.952  1.00  0.00     0.211 HD
ENDBRANCH   6  12
BRANCH   8  14
ATOM     14  O   UNL     1      15.915  -9.224  26.187  1.00  0.00    -0.387 OA
ATOM     15  H   UNL     1      16.590  -8.975  26.852  1.00  0.00     0.211 HD
ENDBRANCH   8  14
BRANCH   9  16
ATOM     16  O   UNL     1      14.653 -10.385  23.942  1.00  0.00    -0.384 OA
ATOM     17  H   UNL     1      15.389  -9.842  23.597  1.00  0.00     0.211 HD
ENDBRANCH   9  16
ENDBRANCH   3   4
ENDBRANCH   1   3
BRANCH   1  18
ATOM     18  C   UNL     1      16.440 -13.661  21.412  1.00  0.00     0.067 A 
ATOM     19  C   UNL     1      16.104 -13.762  20.049  1.00  0.00     0.066 A 
ATOM     20  C   UNL     1      17.065 -14.736  22.064  1.00  0.00     0.066 A 
ATOM     21  C   UNL     1      16.398 -14.931  19.354  1.00  0.00     0.162 A 
ATOM     22  C   UNL     1      17.347 -15.893  21.350  1.00  0.00     0.162 A 
ATOM     23  C   UNL     1      17.017 -15.992  20.004  1.00  0.00     0.200 A 
BRANCH  21  24
ATOM     24  O   UNL     1      16.098 -15.083  18.030  1.00  0.00    -0.504 OA
ATOM     25  H   UNL     1      16.565 -14.391  17.527  1.00  0.00     0.293 HD
ENDBRANCH  21  24
BRANCH  22  26
ATOM     26  O   UNL     1      17.952 -16.939  21.983  1.00  0.00    -0.504 OA
ATOM     27  H   UNL     1      17.248 -17.613  22.079  1.00  0.00     0.293 HD
ENDBRANCH  22  26
BRANCH  23  28
ATOM     28  O   UNL     1      17.310 -17.147  19.330  1.00  0.00    -0.502 OA
ATOM     29  H   UNL     1      16.946 -17.857  19.899  1.00  0.00     0.293 HD
ENDBRANCH  23  28
ENDBRANCH   1  18
TORSDOF 10
ENDMDL
MODEL 8
REMARK VINA RESULT:    -7.075      5.430      8.864
REMARK INTER + INTRA:         -10.362
REMARK INTER:                  -9.801
REMARK INTRA:                  -0.560
REMARK UNBOUND:                -0.392
REMARK SMILES CO[C@H]1OC(OC(=O)c2cc(O)c(O)c(O)c2)[C@H](O)[C@@H](O)[C@@H]1O
REMARK SMILES IDX 7 1 8 2 6 3 5 4 3 5 22 6 4 7 20 8 18 9 2 10 1 11 23 12 21 14
REMARK SMILES IDX 19 16 9 18 17 19 10 20 15 21 11 22 13 23 16 24 12 26 14 28
REMARK H PARENT 23 13 21 15 19 17 16 25 12 27 14 29
ROOT
ATOM      1  C   UNL     1      14.567 -19.097  21.524  1.00  0.00     0.340 C 
ATOM      2  O   UNL     1      15.242 -20.060  21.848  1.00  0.00    -0.246 OA
ENDROOT
BRANCH   1   3
ATOM      3  O   UNL     1      15.008 -17.949  20.958  1.00  0.00    -0.429 OA
BRANCH   3   4
ATOM      4  C   UNL     1      16.432 -17.836  20.808  1.00  0.00     0.345 C 
ATOM      5  C   UNL     1      16.274 -17.913  18.430  1.00  0.00     0.285 C 
ATOM      6  C   UNL     1      16.690 -16.439  18.290  1.00  0.00     0.202 C 
ATOM      7  O   UNL     1      16.846 -18.493  19.598  1.00  0.00    -0.308 OA
ATOM      8  C   UNL     1      16.291 -15.667  19.543  1.00  0.00     0.183 C 
ATOM      9  C   UNL     1      16.856 -16.352  20.787  1.00  0.00     0.215 C 
BRANCH   5  10
ATOM     10  O   UNL     1      16.747 -18.580  17.249  1.00  0.00    -0.353 OA
ATOM     11  C   UNL     1      17.952 -19.295  17.494  1.00  0.00     0.198 C 
ENDBRANCH   5  10
BRANCH   6  12
ATOM     12  O   UNL     1      16.073 -15.822  17.148  1.00  0.00    -0.385 OA
ATOM     13  H   UNL     1      15.123 -15.759  17.374  1.00  0.00     0.211 HD
ENDBRANCH   6  12
BRANCH   8  14
ATOM     14  O   UNL     1      16.795 -14.322  19.478  1.00  0.00    -0.387 OA
ATOM     15  H   UNL     1      17.685 -14.404  19.077  1.00  0.00     0.211 HD
ENDBRANCH   8  14
BRANCH   9  16
ATOM     16  O   UNL     1      16.419 -15.639  21.949  1.00  0.00    -0.384 OA
ATOM     17  H   UNL     1      17.226 -15.219  22.309  1.00  0.00     0.211 HD
ENDBRANCH   9  16
ENDBRANCH   3   4
ENDBRANCH   1   3
BRANCH   1  18
ATOM     18  C   UNL     1      13.091 -19.050  21.708  1.00  0.00     0.067 A 
ATOM     19  C   UNL     1      12.601 -18.655  22.966  1.00  0.00     0.066 A 
ATOM     20  C   UNL     1      12.197 -19.387  20.679  1.00  0.00     0.066 A 
ATOM     21  C   UNL     1      11.228 -18.600  23.182  1.00  0.00     0.162 A 
ATOM     22  C   UNL     1      10.831 -19.326  20.919  1.00  0.00     0.162 A 
ATOM     23  C   UNL     1      10.347 -18.934  22.161  1.00  0.00     0.200 A 
BRANCH  21  24
ATOM     24  O   UNL     1      10.696 -18.221  24.383  1.00  0.00    -0.504 OA
ATOM     25  H   UNL     1      10.492 -17.268  24.342  1.00  0.00     0.293 HD
ENDBRANCH  21  24
BRANCH  22  26
ATOM     26  O   UNL     1       9.962 -19.656  19.920  1.00  0.00    -0.504 OA
ATOM     27  H   UNL     1       9.344 -18.898  19.868  1.00  0.00     0.293 HD
ENDBRANCH  22  26
BRANCH  23  28
ATOM     28  O   UNL     1       8.995 -18.884  22.362  1.00  0.00    -0.502 OA
ATOM     29  H   UNL     1       8.689 -18.165  21.772  1.00  0.00     0.293 HD
ENDBRANCH  23  28
ENDBRANCH   1  18
TORSDOF 10
ENDMDL
MODEL 9
REMARK VINA RESULT:    -6.924      5.287      8.604
REMARK INTER + INTRA:         -10.149
REMARK INTER:                  -9.321
REMARK INTRA:                  -0.828
REMARK UNBOUND:                -0.392
REMARK SMILES CO[C@H]1OC(OC(=O)c2cc(O)c(O)c(O)c2)[C@H](O)[C@@H](O)[C@@H]1O
REMARK SMILES IDX 7 1 8 2 6 3 5 4 3 5 22 6 4 7 20 8 18 9 2 10 1 11 23 12 21 14
REMARK SMILES IDX 19 16 9 18 17 19 10 20 15 21 11 22 13 23 16 24 12 26 14 28
REMARK H PARENT 23 13 21 15 19 17 16 25 12 27 14 29
ROOT
ATOM      1  C   UNL     1      15.650 -19.306  20.367  1.00  0.00     0.340 C 
ATOM      2  O   UNL     1      16.515 -20.152  20.524  1.00  0.00    -0.246 OA
ENDROOT
BRANCH   1   3
ATOM      3  O   UNL     1      14.311 -19.493  20.436  1.00  0.00    -0.429 OA
BRANCH   3   4
ATOM      4  C   UNL     1      13.794 -19.824  21.735  1.00  0.00     0.345 C 
ATOM      5  C   UNL     1      11.670 -18.868  21.228  1.00  0.00     0.285 C 
ATOM      6  C   UNL     1      10.983 -20.245  21.205  1.00  0.00     0.202 C 
ATOM      7  O   UNL     1      12.785 -18.873  22.113  1.00  0.00    -0.308 OA
ATOM      8  C   UNL     1      11.993 -21.320  20.817  1.00  0.00     0.183 C 
ATOM      9  C   UNL     1      13.213 -21.254  21.736  1.00  0.00     0.215 C 
BRANCH   5  10
ATOM     10  O   UNL     1      10.676 -17.930  21.670  1.00  0.00    -0.353 OA
ATOM     11  C   UNL     1      10.418 -18.051  23.063  1.00  0.00     0.198 C 
ENDBRANCH   5  10
BRANCH   6  12
ATOM     12  O   UNL     1       9.891 -20.276  20.273  1.00  0.00    -0.385 OA
ATOM     13  H   UNL     1       9.199 -20.814  20.708  1.00  0.00     0.211 HD
ENDBRANCH   6  12
BRANCH   8  14
ATOM     14  O   UNL     1      11.395 -22.624  20.925  1.00  0.00    -0.387 OA
ATOM     15  H   UNL     1      11.394 -22.978  20.012  1.00  0.00     0.211 HD
ENDBRANCH   8  14
BRANCH   9  16
ATOM     16  O   UNL     1      14.166 -22.235  21.313  1.00  0.00    -0.384 OA
ATOM     17  H   UNL     1      14.935 -21.723  20.991  1.00  0.00     0.211 HD
ENDBRANCH   9  16
ENDBRANCH   3   4
ENDBRANCH   1   3
BRANCH   1  18
ATOM     18  C   UNL     1      15.960 -17.882  20.070  1.00  0.00     0.067 A 
ATOM     19  C   UNL     1      16.052 -17.500  18.719  1.00  0.00     0.066 A 
ATOM     20  C   UNL     1      16.164 -16.933  21.085  1.00  0.00     0.066 A 
ATOM     21  C   UNL     1      16.342 -16.179  18.397  1.00  0.00     0.162 A 
ATOM     22  C   UNL     1      16.454 -15.620  20.738  1.00  0.00     0.162 A 
ATOM     23  C   UNL     1      16.542 -15.243  19.404  1.00  0.00     0.200 A 
BRANCH  21  24
ATOM     24  O   UNL     1      16.441 -15.752  17.102  1.00  0.00    -0.504 OA
ATOM     25  H   UNL     1      16.848 -16.462  16.574  1.00  0.00     0.293 HD
ENDBRANCH  21  24
BRANCH  22  26
ATOM     26  O   UNL     1      16.654 -14.698  21.724  1.00  0.00    -0.504 OA
ATOM     27  H   UNL     1      15.773 -14.296  21.870  1.00  0.00     0.293 HD
ENDBRANCH  22  26
BRANCH  23  28
ATOM     28  O   UNL     1      16.830 -13.941  19.099  1.00  0.00    -0.502 OA
ATOM     29  H   UNL     1      16.593 -13.856  18.152  1.00  0.00     0.293 HD
ENDBRANCH  23  28
ENDBRANCH   1  18
TORSDOF 10
ENDMDL
