MODEL 1
REMARK VINA RESULT:    -7.829      0.000      0.000
REMARK INTER + INTRA:         -11.660
REMARK INTER:                 -11.261
REMARK INTRA:                  -0.399
REMARK UNBOUND:                -0.399
REMARK SMILES O=C([O-])C1=CO[C@@H](O[C@@H]2O[C@H](CO)[C@@H](O)[C@H](O)[C@H]2O)[C@@H]2[C@@H](CO)CC[C@H]12
REMARK SMILES IDX 8 1 7 2 24 3 25 4 21 5 26 6 20 7 4 8 5 9 6 10 22 11 23 12
REMARK SMILES IDX 2 14 1 15 3 16 9 17 18 18 10 19 16 20 11 21 14 22 19 23
REMARK SMILES IDX 17 25 12 27 13 28 15 30
REMARK H PARENT 23 13 19 24 17 26 13 29 15 31
ROOT
ATOM      1  O   UNL     1      15.310 -18.054  21.649  1.00  0.00    -0.310 OA
ENDROOT
BRANCH   1   2
ATOM      2  C   UNL     1      16.434 -17.841  20.783  1.00  0.00     0.313 C 
ATOM      3  C   UNL     1      16.417 -15.423  17.855  1.00  0.00     0.007 C 
ATOM      4  C   UNL     1      15.856 -14.564  18.987  1.00  0.00     0.009 C 
ATOM      5  C   UNL     1      17.020 -16.636  18.554  1.00  0.00     0.024 C 
ATOM      6  C   UNL     1      15.668 -15.495  20.204  1.00  0.00     0.034 C 
ATOM      7  C   UNL     1      15.982 -16.907  19.658  1.00  0.00     0.071 C 
ATOM      8  C   UNL     1      16.576 -15.140  21.352  1.00  0.00     0.013 C 
ATOM      9  C   UNL     1      17.447 -16.016  21.871  1.00  0.00     0.196 C 
ATOM     10  O   UNL     1      17.572 -17.329  21.493  1.00  0.00    -0.472 OA
BRANCH   5  11
ATOM     11  C   UNL     1      17.244 -17.800  17.598  1.00  0.00     0.160 C 
BRANCH  11  12
ATOM     12  O   UNL     1      16.100 -18.017  16.782  1.00  0.00    -0.396 OA
ATOM     13  H   UNL     1      16.215 -17.480  15.977  1.00  0.00     0.210 HD
ENDBRANCH  11  12
ENDBRANCH   5  11
BRANCH   8  14
ATOM     14  C   UNL     1      16.494 -13.723  21.954  1.00  0.00     0.071 C 
ATOM     15  O   UNL     1      15.974 -12.841  21.215  1.00  0.00    -0.545 OA
ATOM     16  O   UNL     1      16.967 -13.619  23.122  1.00  0.00    -0.545 OA
ENDBRANCH   8  14
ENDBRANCH   1   2
BRANCH   1  17
ATOM     17  C   UNL     1      14.438 -19.071  21.169  1.00  0.00     0.286 C 
ATOM     18  C   UNL     1      14.625 -20.273  22.113  1.00  0.00     0.202 C 
ATOM     19  O   UNL     1      13.087 -18.604  21.207  1.00  0.00    -0.341 OA
ATOM     20  C   UNL     1      13.638 -21.374  21.741  1.00  0.00     0.179 C 
ATOM     21  C   UNL     1      12.148 -19.610  20.784  1.00  0.00     0.178 C 
ATOM     22  C   UNL     1      12.209 -20.831  21.709  1.00  0.00     0.177 C 
BRANCH  18  23
ATOM     23  O   UNL     1      15.949 -20.822  22.042  1.00  0.00    -0.385 OA
ATOM     24  H   UNL     1      16.436 -20.281  21.380  1.00  0.00     0.211 HD
ENDBRANCH  18  23
BRANCH  20  25
ATOM     25  O   UNL     1      13.709 -22.454  22.688  1.00  0.00    -0.387 OA
ATOM     26  H   UNL     1      14.022 -23.219  22.158  1.00  0.00     0.211 HD
ENDBRANCH  20  25
BRANCH  21  27
ATOM     27  C   UNL     1      10.756 -18.971  20.798  1.00  0.00     0.191 C 
BRANCH  27  28
ATOM     28  O   UNL     1       9.906 -19.640  19.862  1.00  0.00    -0.394 OA
ATOM     29  H   UNL     1       9.521 -20.394  20.352  1.00  0.00     0.210 HD
ENDBRANCH  27  28
ENDBRANCH  21  27
BRANCH  22  30
ATOM     30  O   UNL     1      11.324 -21.866  21.272  1.00  0.00    -0.387 OA
ATOM     31  H   UNL     1      11.645 -22.675  21.721  1.00  0.00     0.211 HD
ENDBRANCH  22  30
ENDBRANCH   1  17
TORSDOF 10
ENDMDL
MODEL 2
REMARK VINA RESULT:    -7.631      1.185      2.406
REMARK INTER + INTRA:         -11.375
REMARK INTER:                 -10.715
REMARK INTRA:                  -0.660
REMARK UNBOUND:                -0.399
REMARK SMILES O=C([O-])C1=CO[C@@H](O[C@@H]2O[C@H](CO)[C@@H](O)[C@H](O)[C@H]2O)[C@@H]2[C@@H](CO)CC[C@H]12
REMARK SMILES IDX 8 1 7 2 24 3 25 4 21 5 26 6 20 7 4 8 5 9 6 10 22 11 23 12
REMARK SMILES IDX 2 14 1 15 3 16 9 17 18 18 10 19 16 20 11 21 14 22 19 23
REMARK SMILES IDX 17 25 12 27 13 28 15 30
REMARK H PARENT 23 13 19 24 17 26 13 29 15 31
ROOT
ATOM      1  O   UNL     1      15.063 -17.765  21.699  1.00  0.00    -0.310 OA
ENDROOT
BRANCH   1   2
ATOM      2  C   UNL     1      16.239 -17.651  20.884  1.00  0.00     0.313 C 
ATOM      3  C   UNL     1      16.496 -15.384  17.849  1.00  0.00     0.007 C 
ATOM      4  C   UNL     1      15.923 -14.444  18.907  1.00  0.00     0.009 C 
ATOM      5  C   UNL     1      16.999 -16.589  18.636  1.00  0.00     0.024 C 
ATOM      6  C   UNL     1      15.626 -15.302  20.155  1.00  0.00     0.034 C 
ATOM      7  C   UNL     1      15.894 -16.753  19.694  1.00  0.00     0.071 C 
ATOM      8  C   UNL     1      16.492 -14.935  21.332  1.00  0.00     0.013 C 
ATOM      9  C   UNL     1      17.288 -15.826  21.938  1.00  0.00     0.196 C 
ATOM     10  O   UNL     1      17.364 -17.160  21.630  1.00  0.00    -0.472 OA
BRANCH   5  11
ATOM     11  C   UNL     1      17.212 -17.809  17.750  1.00  0.00     0.160 C 
BRANCH  11  12
ATOM     12  O   UNL     1      16.153 -17.947  16.810  1.00  0.00    -0.396 OA
ATOM     13  H   UNL     1      16.274 -17.254  16.136  1.00  0.00     0.210 HD
ENDBRANCH  11  12
ENDBRANCH   5  11
BRANCH   8  14
ATOM     14  C   UNL     1      16.452 -13.487  21.861  1.00  0.00     0.071 C 
ATOM     15  O   UNL     1      15.698 -12.693  21.232  1.00  0.00    -0.545 OA
ATOM     16  O   UNL     1      17.191 -13.273  22.865  1.00  0.00    -0.545 OA
ENDBRANCH   8  14
ENDBRANCH   1   2
BRANCH   1  17
ATOM     17  C   UNL     1      14.627 -19.112  21.839  1.00  0.00     0.286 C 
ATOM     18  C   UNL     1      13.212 -19.167  21.234  1.00  0.00     0.202 C 
ATOM     19  O   UNL     1      15.514 -19.981  21.129  1.00  0.00    -0.341 OA
ATOM     20  C   UNL     1      12.710 -20.607  21.235  1.00  0.00     0.179 C 
ATOM     21  C   UNL     1      15.094 -21.357  21.187  1.00  0.00     0.178 C 
ATOM     22  C   UNL     1      13.714 -21.530  20.542  1.00  0.00     0.177 C 
BRANCH  18  23
ATOM     23  O   UNL     1      12.273 -18.370  21.970  1.00  0.00    -0.385 OA
ATOM     24  H   UNL     1      11.676 -19.001  22.430  1.00  0.00     0.211 HD
ENDBRANCH  18  23
BRANCH  20  25
ATOM     25  O   UNL     1      11.444 -20.700  20.560  1.00  0.00    -0.387 OA
ATOM     26  H   UNL     1      11.616 -20.317  19.673  1.00  0.00     0.211 HD
ENDBRANCH  20  25
BRANCH  21  27
ATOM     27  C   UNL     1      16.155 -22.189  20.459  1.00  0.00     0.191 C 
BRANCH  27  28
ATOM     28  O   UNL     1      15.772 -22.375  19.094  1.00  0.00    -0.394 OA
ATOM     29  H   UNL     1      15.954 -23.316  18.897  1.00  0.00     0.210 HD
ENDBRANCH  27  28
ENDBRANCH  21  27
BRANCH  22  30
ATOM     30  O   UNL     1      13.254 -22.880  20.640  1.00  0.00    -0.387 OA
ATOM     31  H   UNL     1      13.343 -23.240  19.733  1.00  0.00     0.211 HD
ENDBRANCH  22  30
ENDBRANCH   1  17
TORSDOF 10
ENDMDL
MODEL 3
REMARK VINA RESULT:    -7.236      2.312      7.312
REMARK INTER + INTRA:         -10.808
REMARK INTER:                  -9.838
REMARK INTRA:                  -0.969
REMARK UNBOUND:                -0.399
REMARK SMILES O=C([O-])C1=CO[C@@H](O[C@@H]2O[C@H](CO)[C@@H](O)[C@H](O)[C@H]2O)[C@@H]2[C@@H](CO)CC[C@H]12
REMARK SMILES IDX 8 1 7 2 24 3 25 4 21 5 26 6 20 7 4 8 5 9 6 10 22 11 23 12
REMARK SMILES IDX 2 14 1 15 3 16 9 17 18 18 10 19 16 20 11 21 14 22 19 23
REMARK SMILES IDX 17 25 12 27 13 28 15 30
REMARK H PARENT 23 13 19 24 17 26 13 29 15 31
ROOT
ATOM      1  O   UNL     1      13.752 -18.542  21.641  1.00  0.00    -0.310 OA
ENDROOT
BRANCH   1   2
ATOM      2  C   UNL     1      13.415 -19.411  22.734  1.00  0.00     0.313 C 
ATOM      3  C   UNL     1      10.215 -19.118  24.756  1.00  0.00     0.007 C 
ATOM      4  C   UNL     1       9.695 -19.077  23.320  1.00  0.00     0.009 C 
ATOM      5  C   UNL     1      11.651 -19.616  24.632  1.00  0.00     0.024 C 
ATOM      6  C   UNL     1      10.932 -19.032  22.398  1.00  0.00     0.034 C 
ATOM      7  C   UNL     1      12.127 -18.881  23.366  1.00  0.00     0.071 C 
ATOM      8  C   UNL     1      11.070 -20.269  21.549  1.00  0.00     0.013 C 
ATOM      9  C   UNL     1      12.164 -21.041  21.587  1.00  0.00     0.196 C 
ATOM     10  O   UNL     1      13.296 -20.779  22.316  1.00  0.00    -0.472 OA
BRANCH   5  11
ATOM     11  C   UNL     1      12.472 -19.324  25.880  1.00  0.00     0.160 C 
BRANCH  11  12
ATOM     12  O   UNL     1      11.711 -18.588  26.830  1.00  0.00    -0.396 OA
ATOM     13  H   UNL     1      11.159 -19.229  27.315  1.00  0.00     0.210 HD
ENDBRANCH  11  12
ENDBRANCH   5  11
BRANCH   8  14
ATOM     14  C   UNL     1       9.916 -20.653  20.602  1.00  0.00     0.071 C 
ATOM     15  O   UNL     1       9.606 -19.789  19.734  1.00  0.00    -0.545 OA
ATOM     16  O   UNL     1       9.415 -21.794  20.818  1.00  0.00    -0.545 OA
ENDBRANCH   8  14
ENDBRANCH   1   2
BRANCH   1  17
ATOM     17  C   UNL     1      15.158 -18.390  21.482  1.00  0.00     0.286 C 
ATOM     18  C   UNL     1      15.500 -18.999  20.110  1.00  0.00     0.202 C 
ATOM     19  O   UNL     1      15.498 -17.001  21.516  1.00  0.00    -0.341 OA
ATOM     20  C   UNL     1      16.976 -18.774  19.803  1.00  0.00     0.179 C 
ATOM     21  C   UNL     1      16.904 -16.776  21.304  1.00  0.00     0.178 C 
ATOM     22  C   UNL     1      17.333 -17.292  19.925  1.00  0.00     0.177 C 
BRANCH  18  23
ATOM     23  O   UNL     1      15.248 -20.412  20.063  1.00  0.00    -0.385 OA
ATOM     24  H   UNL     1      14.509 -20.539  19.428  1.00  0.00     0.211 HD
ENDBRANCH  18  23
BRANCH  20  25
ATOM     25  O   UNL     1      17.288 -19.223  18.473  1.00  0.00    -0.387 OA
ATOM     26  H   UNL     1      17.456 -18.395  17.973  1.00  0.00     0.211 HD
ENDBRANCH  20  25
BRANCH  21  27
ATOM     27  C   UNL     1      17.151 -15.270  21.436  1.00  0.00     0.191 C 
BRANCH  27  28
ATOM     28  O   UNL     1      17.568 -14.963  22.769  1.00  0.00    -0.394 OA
ATOM     29  H   UNL     1      17.371 -15.763  23.296  1.00  0.00     0.210 HD
ENDBRANCH  27  28
ENDBRANCH  21  27
BRANCH  22  30
ATOM     30  O   UNL     1      18.739 -17.129  19.718  1.00  0.00    -0.387 OA
ATOM     31  H   UNL     1      18.920 -16.197  19.959  1.00  0.00     0.211 HD
ENDBRANCH  22  30
ENDBRANCH   1  17
TORSDOF 10
ENDMDL
MODEL 4
REMARK VINA RESULT:    -7.183      2.081      6.495
REMARK INTER + INTRA:         -10.731
REMARK INTER:                  -9.977
REMARK INTRA:                  -0.754
REMARK UNBOUND:                -0.399
REMARK SMILES O=C([O-])C1=CO[C@@H](O[C@@H]2O[C@H](CO)[C@@H](O)[C@H](O)[C@H]2O)[C@@H]2[C@@H](CO)CC[C@H]12
REMARK SMILES IDX 8 1 7 2 24 3 25 4 21 5 26 6 20 7 4 8 5 9 6 10 22 11 23 12
REMARK SMILES IDX 2 14 1 15 3 16 9 17 18 18 10 19 16 20 11 21 14 22 19 23
REMARK SMILES IDX 17 25 12 27 13 28 15 30
REMARK H PARENT 23 13 19 24 17 26 13 29 15 31
ROOT
ATOM      1  O   UNL     1      14.477 -17.884  21.190  1.00  0.00    -0.310 OA
ENDROOT
BRANCH   1   2
ATOM      2  C   UNL     1      14.151 -19.281  21.152  1.00  0.00     0.313 C 
ATOM      3  C   UNL     1      13.259 -21.328  24.223  1.00  0.00     0.007 C 
ATOM      4  C   UNL     1      12.363 -20.101  24.381  1.00  0.00     0.009 C 
ATOM      5  C   UNL     1      13.744 -21.268  22.779  1.00  0.00     0.024 C 
ATOM      6  C   UNL     1      12.755 -19.114  23.260  1.00  0.00     0.034 C 
ATOM      7  C   UNL     1      13.992 -19.760  22.596  1.00  0.00     0.071 C 
ATOM      8  C   UNL     1      11.648 -18.901  22.260  1.00  0.00     0.013 C 
ATOM      9  C   UNL     1      11.809 -19.148  20.954  1.00  0.00     0.196 C 
ATOM     10  O   UNL     1      12.982 -19.539  20.359  1.00  0.00    -0.472 OA
BRANCH   5  11
ATOM     11  C   UNL     1      14.968 -22.143  22.545  1.00  0.00     0.160 C 
BRANCH  11  12
ATOM     12  O   UNL     1      16.123 -21.576  23.149  1.00  0.00    -0.396 OA
ATOM     13  H   UNL     1      16.819 -22.257  23.136  1.00  0.00     0.210 HD
ENDBRANCH  11  12
ENDBRANCH   5  11
BRANCH   8  14
ATOM     14  C   UNL     1      10.287 -18.373  22.759  1.00  0.00     0.071 C 
ATOM     15  O   UNL     1      10.332 -17.351  23.498  1.00  0.00    -0.545 OA
ATOM     16  O   UNL     1       9.288 -19.041  22.366  1.00  0.00    -0.545 OA
ENDBRANCH   8  14
ENDBRANCH   1   2
BRANCH   1  17
ATOM     17  C   UNL     1      15.495 -17.537  20.258  1.00  0.00     0.286 C 
ATOM     18  C   UNL     1      16.804 -17.461  21.064  1.00  0.00     0.202 C 
ATOM     19  O   UNL     1      15.582 -18.543  19.245  1.00  0.00    -0.341 OA
ATOM     20  C   UNL     1      17.973 -17.208  20.119  1.00  0.00     0.179 C 
ATOM     21  C   UNL     1      16.634 -18.277  18.299  1.00  0.00     0.178 C 
ATOM     22  C   UNL     1      17.998 -18.249  18.999  1.00  0.00     0.177 C 
BRANCH  18  23
ATOM     23  O   UNL     1      16.784 -16.407  22.038  1.00  0.00    -0.385 OA
ATOM     24  H   UNL     1      17.438 -16.657  22.728  1.00  0.00     0.211 HD
ENDBRANCH  18  23
BRANCH  20  25
ATOM     25  O   UNL     1      19.219 -17.260  20.835  1.00  0.00    -0.387 OA
ATOM     26  H   UNL     1      19.897 -17.352  20.131  1.00  0.00     0.211 HD
ENDBRANCH  20  25
BRANCH  21  27
ATOM     27  C   UNL     1      16.579 -19.376  17.233  1.00  0.00     0.191 C 
BRANCH  27  28
ATOM     28  O   UNL     1      16.243 -18.805  15.966  1.00  0.00    -0.394 OA
ATOM     29  H   UNL     1      15.621 -18.077  16.164  1.00  0.00     0.210 HD
ENDBRANCH  27  28
ENDBRANCH  21  27
BRANCH  22  30
ATOM     30  O   UNL     1      19.051 -17.929  18.085  1.00  0.00    -0.387 OA
ATOM     31  H   UNL     1      18.659 -17.270  17.474  1.00  0.00     0.211 HD
ENDBRANCH  22  30
ENDBRANCH   1  17
TORSDOF 10
ENDMDL
MODEL 5
REMARK VINA RESULT:    -7.077      3.722      7.209
REMARK INTER + INTRA:         -10.579
REMARK INTER:                  -9.680
REMARK INTRA:                  -0.899
REMARK UNBOUND:                -0.399
REMARK SMILES O=C([O-])C1=CO[C@@H](O[C@@H]2O[C@H](CO)[C@@H](O)[C@H](O)[C@H]2O)[C@@H]2[C@@H](CO)CC[C@H]12
REMARK SMILES IDX 8 1 7 2 24 3 25 4 21 5 26 6 20 7 4 8 5 9 6 10 22 11 23 12
REMARK SMILES IDX 2 14 1 15 3 16 9 17 18 18 10 19 16 20 11 21 14 22 19 23
REMARK SMILES IDX 17 25 12 27 13 28 15 30
REMARK H PARENT 23 13 19 24 17 26 13 29 15 31
ROOT
ATOM      1  O   UNL     1      18.592 -18.084  18.056  1.00  0.00    -0.310 OA
ENDROOT
BRANCH   1   2
ATOM      2  C   UNL     1      17.187 -18.336  17.901  1.00  0.00     0.313 C 
ATOM      3  C   UNL     1      14.832 -19.031  20.798  1.00  0.00     0.007 C 
ATOM      4  C   UNL     1      15.574 -17.785  21.276  1.00  0.00     0.009 C 
ATOM      5  C   UNL     1      15.145 -19.118  19.307  1.00  0.00     0.024 C 
ATOM      6  C   UNL     1      16.679 -17.495  20.237  1.00  0.00     0.034 C 
ATOM      7  C   UNL     1      16.627 -18.705  19.276  1.00  0.00     0.071 C 
ATOM      8  C   UNL     1      16.457 -16.201  19.498  1.00  0.00     0.013 C 
ATOM      9  C   UNL     1      16.351 -16.151  18.164  1.00  0.00     0.196 C 
ATOM     10  O   UNL     1      16.502 -17.218  17.315  1.00  0.00    -0.472 OA
BRANCH   5  11
ATOM     11  C   UNL     1      14.863 -20.502  18.739  1.00  0.00     0.160 C 
BRANCH  11  12
ATOM     12  O   UNL     1      14.110 -21.286  19.656  1.00  0.00    -0.396 OA
ATOM     13  H   UNL     1      14.061 -20.785  20.490  1.00  0.00     0.210 HD
ENDBRANCH  11  12
ENDBRANCH   5  11
BRANCH   8  14
ATOM     14  C   UNL     1      16.356 -14.892  20.306  1.00  0.00     0.071 C 
ATOM     15  O   UNL     1      17.127 -14.799  21.301  1.00  0.00    -0.545 OA
ATOM     16  O   UNL     1      15.501 -14.069  19.869  1.00  0.00    -0.545 OA
ENDBRANCH   8  14
ENDBRANCH   1   2
BRANCH   1  17
ATOM     17  C   UNL     1      19.384 -18.852  17.157  1.00  0.00     0.286 C 
ATOM     18  C   UNL     1      20.554 -17.944  16.739  1.00  0.00     0.202 C 
ATOM     19  O   UNL     1      19.866 -20.024  17.821  1.00  0.00    -0.341 OA
ATOM     20  C   UNL     1      21.523 -18.730  15.862  1.00  0.00     0.179 C 
ATOM     21  C   UNL     1      20.722 -20.817  16.979  1.00  0.00     0.178 C 
ATOM     22  C   UNL     1      21.961 -20.018  16.560  1.00  0.00     0.177 C 
BRANCH  18  23
ATOM     23  O   UNL     1      20.116 -16.797  15.997  1.00  0.00    -0.385 OA
ATOM     24  H   UNL     1      19.506 -17.134  15.303  1.00  0.00     0.211 HD
ENDBRANCH  18  23
BRANCH  20  25
ATOM     25  O   UNL     1      22.687 -17.939  15.564  1.00  0.00    -0.387 OA
ATOM     26  H   UNL     1      23.188 -18.483  14.919  1.00  0.00     0.211 HD
ENDBRANCH  20  25
BRANCH  21  27
ATOM     27  C   UNL     1      21.110 -22.070  17.772  1.00  0.00     0.191 C 
BRANCH  27  28
ATOM     28  O   UNL     1      22.442 -21.931  18.274  1.00  0.00    -0.394 OA
ATOM     29  H   UNL     1      22.479 -21.039  18.673  1.00  0.00     0.210 HD
ENDBRANCH  27  28
ENDBRANCH  21  27
BRANCH  22  30
ATOM     30  O   UNL     1      22.797 -20.770  15.676  1.00  0.00    -0.387 OA
ATOM     31  H   UNL     1      22.691 -20.337  14.803  1.00  0.00     0.211 HD
ENDBRANCH  22  30
ENDBRANCH   1  17
TORSDOF 10
ENDMDL
MODEL 6
REMARK VINA RESULT:    -6.836      1.883      7.238
REMARK INTER + INTRA:         -10.231
REMARK INTER:                  -9.388
REMARK INTRA:                  -0.843
REMARK UNBOUND:                -0.399
REMARK SMILES O=C([O-])C1=CO[C@@H](O[C@@H]2O[C@H](CO)[C@@H](O)[C@H](O)[C@H]2O)[C@@H]2[C@@H](CO)CC[C@H]12
REMARK SMILES IDX 8 1 7 2 24 3 25 4 21 5 26 6 20 7 4 8 5 9 6 10 22 11 23 12
REMARK SMILES IDX 2 14 1 15 3 16 9 17 18 18 10 19 16 20 11 21 14 22 19 23
REMARK SMILES IDX 17 25 12 27 13 28 15 30
REMARK H PARENT 23 13 19 24 17 26 13 29 15 31
ROOT
ATOM      1  O   UNL     1      14.028 -19.023  21.198  1.00  0.00    -0.310 OA
ENDROOT
BRANCH   1   2
ATOM      2  C   UNL     1      14.103 -20.390  21.632  1.00  0.00     0.313 C 
ATOM      3  C   UNL     1      12.507 -21.683  24.825  1.00  0.00     0.007 C 
ATOM      4  C   UNL     1      11.361 -20.905  24.183  1.00  0.00     0.009 C 
ATOM      5  C   UNL     1      13.536 -21.844  23.711  1.00  0.00     0.024 C 
ATOM      6  C   UNL     1      11.942 -20.196  22.941  1.00  0.00     0.034 C 
ATOM      7  C   UNL     1      13.461 -20.472  23.018  1.00  0.00     0.071 C 
ATOM      8  C   UNL     1      11.359 -20.712  21.652  1.00  0.00     0.013 C 
ATOM      9  C   UNL     1      12.121 -21.229  20.680  1.00  0.00     0.196 C 
ATOM     10  O   UNL     1      13.492 -21.287  20.693  1.00  0.00    -0.472 OA
BRANCH   5  11
ATOM     11  C   UNL     1      14.914 -22.208  24.246  1.00  0.00     0.160 C 
BRANCH  11  12
ATOM     12  O   UNL     1      15.618 -23.031  23.325  1.00  0.00    -0.396 OA
ATOM     13  H   UNL     1      15.510 -22.632  22.442  1.00  0.00     0.210 HD
ENDBRANCH  11  12
ENDBRANCH   5  11
BRANCH   8  14
ATOM     14  C   UNL     1       9.833 -20.634  21.442  1.00  0.00     0.071 C 
ATOM     15  O   UNL     1       9.264 -19.613  21.921  1.00  0.00    -0.545 OA
ATOM     16  O   UNL     1       9.336 -21.614  20.817  1.00  0.00    -0.545 OA
ENDBRANCH   8  14
ENDBRANCH   1   2
BRANCH   1  17
ATOM     17  C   UNL     1      15.260 -18.554  20.663  1.00  0.00     0.286 C 
ATOM     18  C   UNL     1      15.049 -18.439  19.143  1.00  0.00     0.202 C 
ATOM     19  O   UNL     1      15.575 -17.278  21.227  1.00  0.00    -0.341 OA
ATOM     20  C   UNL     1      16.288 -17.829  18.498  1.00  0.00     0.179 C 
ATOM     21  C   UNL     1      16.786 -16.722  20.683  1.00  0.00     0.178 C 
ATOM     22  C   UNL     1      16.651 -16.505  19.171  1.00  0.00     0.177 C 
BRANCH  18  23
ATOM     23  O   UNL     1      14.811 -19.714  18.528  1.00  0.00    -0.385 OA
ATOM     24  H   UNL     1      13.999 -20.076  18.948  1.00  0.00     0.211 HD
ENDBRANCH  18  23
BRANCH  20  25
ATOM     25  O   UNL     1      16.063 -17.596  17.097  1.00  0.00    -0.387 OA
ATOM     26  H   UNL     1      16.635 -16.827  16.886  1.00  0.00     0.211 HD
ENDBRANCH  20  25
BRANCH  21  27
ATOM     27  C   UNL     1      17.052 -15.402  21.413  1.00  0.00     0.191 C 
BRANCH  27  28
ATOM     28  O   UNL     1      17.462 -15.666  22.757  1.00  0.00    -0.394 OA
ATOM     29  H   UNL     1      18.303 -15.180  22.874  1.00  0.00     0.210 HD
ENDBRANCH  27  28
ENDBRANCH  21  27
BRANCH  22  30
ATOM     30  O   UNL     1      17.865 -16.007  18.602  1.00  0.00    -0.387 OA
ATOM     31  H   UNL     1      18.033 -15.163  19.072  1.00  0.00     0.211 HD
ENDBRANCH  22  30
ENDBRANCH   1  17
TORSDOF 10
ENDMDL
MODEL 7
REMARK VINA RESULT:    -6.829      3.386      6.872
REMARK INTER + INTRA:         -10.222
REMARK INTER:                  -9.635
REMARK INTRA:                  -0.587
REMARK UNBOUND:                -0.399
REMARK SMILES O=C([O-])C1=CO[C@@H](O[C@@H]2O[C@H](CO)[C@@H](O)[C@H](O)[C@H]2O)[C@@H]2[C@@H](CO)CC[C@H]12
REMARK SMILES IDX 8 1 7 2 24 3 25 4 21 5 26 6 20 7 4 8 5 9 6 10 22 11 23 12
REMARK SMILES IDX 2 14 1 15 3 16 9 17 18 18 10 19 16 20 11 21 14 22 19 23
REMARK SMILES IDX 17 25 12 27 13 28 15 30
REMARK H PARENT 23 13 19 24 17 26 13 29 15 31
ROOT
ATOM      1  O   UNL     1      18.933 -18.213  18.902  1.00  0.00    -0.310 OA
ENDROOT
BRANCH   1   2
ATOM      2  C   UNL     1      17.592 -18.351  18.409  1.00  0.00     0.313 C 
ATOM      3  C   UNL     1      14.575 -18.962  20.633  1.00  0.00     0.007 C 
ATOM      4  C   UNL     1      15.262 -17.791  21.334  1.00  0.00     0.009 C 
ATOM      5  C   UNL     1      15.227 -19.022  19.256  1.00  0.00     0.024 C 
ATOM      6  C   UNL     1      16.599 -17.553  20.600  1.00  0.00     0.034 C 
ATOM      7  C   UNL     1      16.698 -18.722  19.594  1.00  0.00     0.071 C 
ATOM      8  C   UNL     1      16.646 -16.222  19.895  1.00  0.00     0.013 C 
ATOM      9  C   UNL     1      16.864 -16.119  18.578  1.00  0.00     0.196 C 
ATOM     10  O   UNL     1      17.142 -17.165  17.736  1.00  0.00    -0.472 OA
BRANCH   5  11
ATOM     11  C   UNL     1      14.997 -20.361  18.568  1.00  0.00     0.160 C 
BRANCH  11  12
ATOM     12  O   UNL     1      14.274 -21.249  19.410  1.00  0.00    -0.396 OA
ATOM     13  H   UNL     1      14.178 -22.090  18.927  1.00  0.00     0.210 HD
ENDBRANCH  11  12
ENDBRANCH   5  11
BRANCH   8  14
ATOM     14  C   UNL     1      16.442 -14.935  20.722  1.00  0.00     0.071 C 
ATOM     15  O   UNL     1      15.611 -14.108  20.254  1.00  0.00    -0.545 OA
ATOM     16  O   UNL     1      17.143 -14.868  21.771  1.00  0.00    -0.545 OA
ENDBRANCH   8  14
ENDBRANCH   1   2
BRANCH   1  17
ATOM     17  C   UNL     1      19.899 -18.764  18.014  1.00  0.00     0.286 C 
ATOM     18  C   UNL     1      19.192 -19.917  17.279  1.00  0.00     0.202 C 
ATOM     19  O   UNL     1      20.328 -17.762  17.088  1.00  0.00    -0.341 OA
ATOM     20  C   UNL     1      20.122 -20.493  16.217  1.00  0.00     0.179 C 
ATOM     21  C   UNL     1      21.268 -18.273  16.125  1.00  0.00     0.178 C 
ATOM     22  C   UNL     1      20.632 -19.390  15.289  1.00  0.00     0.177 C 
BRANCH  18  23
ATOM     23  O   UNL     1      18.818 -20.981  18.166  1.00  0.00    -0.385 OA
ATOM     24  H   UNL     1      19.281 -20.808  19.015  1.00  0.00     0.211 HD
ENDBRANCH  18  23
BRANCH  20  25
ATOM     25  O   UNL     1      19.438 -21.486  15.434  1.00  0.00    -0.387 OA
ATOM     26  H   UNL     1      18.593 -21.631  15.913  1.00  0.00     0.211 HD
ENDBRANCH  20  25
BRANCH  21  27
ATOM     27  C   UNL     1      21.704 -17.098  15.244  1.00  0.00     0.191 C 
BRANCH  27  28
ATOM     28  O   UNL     1      22.880 -17.453  14.512  1.00  0.00    -0.394 OA
ATOM     29  H   UNL     1      23.178 -16.628  14.079  1.00  0.00     0.210 HD
ENDBRANCH  27  28
ENDBRANCH  21  27
BRANCH  22  30
ATOM     30  O   UNL     1      21.567 -19.950  14.364  1.00  0.00    -0.387 OA
ATOM     31  H   UNL     1      22.265 -20.349  14.925  1.00  0.00     0.211 HD
ENDBRANCH  22  30
ENDBRANCH   1  17
TORSDOF 10
ENDMDL
MODEL 8
REMARK VINA RESULT:    -6.824      2.036      7.223
REMARK INTER + INTRA:         -10.214
REMARK INTER:                  -9.469
REMARK INTRA:                  -0.745
REMARK UNBOUND:                -0.399
REMARK SMILES O=C([O-])C1=CO[C@@H](O[C@@H]2O[C@H](CO)[C@@H](O)[C@H](O)[C@H]2O)[C@@H]2[C@@H](CO)CC[C@H]12
REMARK SMILES IDX 8 1 7 2 24 3 25 4 21 5 26 6 20 7 4 8 5 9 6 10 22 11 23 12
REMARK SMILES IDX 2 14 1 15 3 16 9 17 18 18 10 19 16 20 11 21 14 22 19 23
REMARK SMILES IDX 17 25 12 27 13 28 15 30
REMARK H PARENT 23 13 19 24 17 26 13 29 15 31
ROOT
ATOM      1  O   UNL     1      13.633 -18.513  20.842  1.00  0.00    -0.310 OA
ENDROOT
BRANCH   1   2
ATOM      2  C   UNL     1      12.910 -18.625  22.077  1.00  0.00     0.313 C 
ATOM      3  C   UNL     1       9.348 -19.917  22.330  1.00  0.00     0.007 C 
ATOM      4  C   UNL     1      10.019 -20.985  21.470  1.00  0.00     0.009 C 
ATOM      5  C   UNL     1      10.504 -19.121  22.927  1.00  0.00     0.024 C 
ATOM      6  C   UNL     1      11.447 -20.483  21.166  1.00  0.00     0.034 C 
ATOM      7  C   UNL     1      11.479 -19.049  21.739  1.00  0.00     0.071 C 
ATOM      8  C   UNL     1      12.512 -21.345  21.794  1.00  0.00     0.013 C 
ATOM      9  C   UNL     1      13.418 -20.851  22.647  1.00  0.00     0.196 C 
ATOM     10  O   UNL     1      13.545 -19.530  22.993  1.00  0.00    -0.472 OA
BRANCH   5  11
ATOM     11  C   UNL     1      10.056 -17.767  23.462  1.00  0.00     0.160 C 
BRANCH  11  12
ATOM     12  O   UNL     1      10.142 -17.726  24.880  1.00  0.00    -0.396 OA
ATOM     13  H   UNL     1       9.971 -16.806  25.152  1.00  0.00     0.210 HD
ENDBRANCH  11  12
ENDBRANCH   5  11
BRANCH   8  14
ATOM     14  C   UNL     1      12.562 -22.844  21.435  1.00  0.00     0.071 C 
ATOM     15  O   UNL     1      12.861 -23.113  20.238  1.00  0.00    -0.545 OA
ATOM     16  O   UNL     1      12.291 -23.624  22.393  1.00  0.00    -0.545 OA
ENDBRANCH   8  14
ENDBRANCH   1   2
BRANCH   1  17
ATOM     17  C   UNL     1      15.040 -18.436  21.041  1.00  0.00     0.286 C 
ATOM     18  C   UNL     1      15.683 -19.007  19.764  1.00  0.00     0.202 C 
ATOM     19  O   UNL     1      15.425 -17.072  21.234  1.00  0.00    -0.341 OA
ATOM     20  C   UNL     1      17.198 -18.855  19.841  1.00  0.00     0.179 C 
ATOM     21  C   UNL     1      16.848 -16.922  21.386  1.00  0.00     0.178 C 
ATOM     22  C   UNL     1      17.582 -17.403  20.129  1.00  0.00     0.177 C 
BRANCH  18  23
ATOM     23  O   UNL     1      15.386 -20.399  19.580  1.00  0.00    -0.385 OA
ATOM     24  H   UNL     1      14.434 -20.448  19.341  1.00  0.00     0.211 HD
ENDBRANCH  18  23
BRANCH  20  25
ATOM     25  O   UNL     1      17.809 -19.266  18.606  1.00  0.00    -0.387 OA
ATOM     26  H   UNL     1      17.793 -18.458  18.049  1.00  0.00     0.211 HD
ENDBRANCH  20  25
BRANCH  21  27
ATOM     27  C   UNL     1      17.125 -15.439  21.657  1.00  0.00     0.191 C 
BRANCH  27  28
ATOM     28  O   UNL     1      17.402 -15.244  23.046  1.00  0.00    -0.394 OA
ATOM     29  H   UNL     1      18.312 -14.886  23.084  1.00  0.00     0.210 HD
ENDBRANCH  27  28
ENDBRANCH  21  27
BRANCH  22  30
ATOM     30  O   UNL     1      19.001 -17.315  20.282  1.00  0.00    -0.387 OA
ATOM     31  H   UNL     1      19.147 -16.481  20.777  1.00  0.00     0.211 HD
ENDBRANCH  22  30
ENDBRANCH   1  17
TORSDOF 10
ENDMDL
MODEL 9
REMARK VINA RESULT:    -6.721      3.684      7.866
REMARK INTER + INTRA:         -10.066
REMARK INTER:                  -9.381
REMARK INTRA:                  -0.685
REMARK UNBOUND:                -0.399
REMARK SMILES O=C([O-])C1=CO[C@@H](O[C@@H]2O[C@H](CO)[C@@H](O)[C@H](O)[C@H]2O)[C@@H]2[C@@H](CO)CC[C@H]12
REMARK SMILES IDX 8 1 7 2 24 3 25 4 21 5 26 6 20 7 4 8 5 9 6 10 22 11 23 12
REMARK SMILES IDX 2 14 1 15 3 16 9 17 18 18 10 19 16 20 11 21 14 22 19 23
REMARK SMILES IDX 17 25 12 27 13 28 15 30
REMARK H PARENT 23 13 19 24 17 26 13 29 15 31
ROOT
ATOM      1  O   UNL     1      18.441 -17.875  17.470  1.00  0.00    -0.310 OA
ENDROOT
BRANCH   1   2
ATOM      2  C   UNL     1      18.462 -17.463  18.845  1.00  0.00     0.313 C 
ATOM      3  C   UNL     1      15.360 -17.189  21.017  1.00  0.00     0.007 C 
ATOM      4  C   UNL     1      15.198 -18.575  20.396  1.00  0.00     0.009 C 
ATOM      5  C   UNL     1      16.812 -16.812  20.746  1.00  0.00     0.024 C 
ATOM      6  C   UNL     1      16.333 -18.737  19.362  1.00  0.00     0.034 C 
ATOM      7  C   UNL     1      17.011 -17.349  19.318  1.00  0.00     0.071 C 
ATOM      8  C   UNL     1      17.317 -19.813  19.743  1.00  0.00     0.013 C 
ATOM      9  C   UNL     1      18.624 -19.563  19.897  1.00  0.00     0.196 C 
ATOM     10  O   UNL     1      19.234 -18.357  19.663  1.00  0.00    -0.472 OA
BRANCH   5  11
ATOM     11  C   UNL     1      17.058 -15.317  20.900  1.00  0.00     0.160 C 
BRANCH  11  12
ATOM     12  O   UNL     1      17.506 -15.007  22.214  1.00  0.00    -0.396 OA
ATOM     13  H   UNL     1      18.173 -14.303  22.131  1.00  0.00     0.210 HD
ENDBRANCH  11  12
ENDBRANCH   5  11
BRANCH   8  14
ATOM     14  C   UNL     1      16.801 -21.251  19.955  1.00  0.00     0.071 C 
ATOM     15  O   UNL     1      16.390 -21.845  18.919  1.00  0.00    -0.545 OA
ATOM     16  O   UNL     1      16.851 -21.657  21.151  1.00  0.00    -0.545 OA
ENDBRANCH   8  14
ENDBRANCH   1   2
BRANCH   1  17
ATOM     17  C   UNL     1      19.628 -18.561  17.090  1.00  0.00     0.286 C 
ATOM     18  C   UNL     1      19.177 -19.720  16.181  1.00  0.00     0.202 C 
ATOM     19  O   UNL     1      20.493 -17.670  16.381  1.00  0.00    -0.341 OA
ATOM     20  C   UNL     1      20.401 -20.443  15.629  1.00  0.00     0.179 C 
ATOM     21  C   UNL     1      21.691 -18.322  15.919  1.00  0.00     0.178 C 
ATOM     22  C   UNL     1      21.349 -19.457  14.947  1.00  0.00     0.177 C 
BRANCH  18  23
ATOM     23  O   UNL     1      18.373 -20.680  16.881  1.00  0.00    -0.385 OA
ATOM     24  H   UNL     1      17.438 -20.473  16.656  1.00  0.00     0.211 HD
ENDBRANCH  18  23
BRANCH  20  25
ATOM     25  O   UNL     1      20.006 -21.447  14.679  1.00  0.00    -0.387 OA
ATOM     26  H   UNL     1      19.148 -21.123  14.329  1.00  0.00     0.211 HD
ENDBRANCH  20  25
BRANCH  21  27
ATOM     27  C   UNL     1      22.560 -17.255  15.245  1.00  0.00     0.191 C 
BRANCH  27  28
ATOM     28  O   UNL     1      22.721 -17.567  13.859  1.00  0.00    -0.394 OA
ATOM     29  H   UNL     1      23.556 -17.133  13.589  1.00  0.00     0.210 HD
ENDBRANCH  27  28
ENDBRANCH  21  27
BRANCH  22  30
ATOM     30  O   UNL     1      22.523 -20.153  14.521  1.00  0.00    -0.387 OA
ATOM     31  H   UNL     1      22.427 -20.233  13.548  1.00  0.00     0.211 HD
ENDBRANCH  22  30
ENDBRANCH   1  17
TORSDOF 10
ENDMDL
