MODEL 1
REMARK VINA RESULT:    -7.837      0.000      0.000
REMARK INTER + INTRA:         -11.684
REMARK INTER:                 -11.274
REMARK INTRA:                  -0.411
REMARK UNBOUND:                -0.411
REMARK SMILES O=C([O-])C1=CO[C@@H](O[C@@H]2O[C@H](CO)[C@@H](O)[C@H](O)[C@H]2O)[C@@H]2[C@@H](CO)CC[C@H]12
REMARK SMILES IDX 8 1 7 2 24 3 25 4 21 5 26 6 20 7 4 8 5 9 6 10 22 11 23 12
REMARK SMILES IDX 2 14 1 15 3 16 9 17 18 18 10 19 16 20 11 21 14 22 19 23
REMARK SMILES IDX 17 25 12 27 13 28 15 30
REMARK H PARENT 23 13 19 24 17 26 13 29 15 31
ROOT
ATOM      1  O   UNL     1      15.323 -18.042  21.658  1.00  0.00    -0.310 OA
ENDROOT
BRANCH   1   2
ATOM      2  C   UNL     1      16.444 -17.811  20.792  1.00  0.00     0.313 C 
ATOM      3  C   UNL     1      16.399 -15.369  17.884  1.00  0.00     0.007 C 
ATOM      4  C   UNL     1      15.832 -14.525  19.024  1.00  0.00     0.009 C 
ATOM      5  C   UNL     1      17.015 -16.583  18.572  1.00  0.00     0.024 C 
ATOM      6  C   UNL     1      15.656 -15.468  20.233  1.00  0.00     0.034 C 
ATOM      7  C   UNL     1      15.982 -16.872  19.675  1.00  0.00     0.071 C 
ATOM      8  C   UNL     1      16.562 -15.114  21.383  1.00  0.00     0.013 C 
ATOM      9  C   UNL     1      17.442 -15.985  21.893  1.00  0.00     0.196 C 
ATOM     10  O   UNL     1      17.578 -17.294  21.505  1.00  0.00    -0.472 OA
BRANCH   5  11
ATOM     11  C   UNL     1      17.249 -17.736  17.607  1.00  0.00     0.160 C 
BRANCH  11  12
ATOM     12  O   UNL     1      16.101 -17.967  16.800  1.00  0.00    -0.396 OA
ATOM     13  H   UNL     1      16.408 -18.061  15.881  1.00  0.00     0.210 HD
ENDBRANCH  11  12
ENDBRANCH   5  11
BRANCH   8  14
ATOM     14  C   UNL     1      16.467 -13.702  21.997  1.00  0.00     0.071 C 
ATOM     15  O   UNL     1      15.896 -12.830  21.284  1.00  0.00    -0.545 OA
ATOM     16  O   UNL     1      16.983 -13.592  23.146  1.00  0.00    -0.545 OA
ENDBRANCH   8  14
ENDBRANCH   1   2
BRANCH   1  17
ATOM     17  C   UNL     1      14.461 -19.063  21.171  1.00  0.00     0.286 C 
ATOM     18  C   UNL     1      14.657 -20.269  22.108  1.00  0.00     0.202 C 
ATOM     19  O   UNL     1      13.106 -18.608  21.210  1.00  0.00    -0.341 OA
ATOM     20  C   UNL     1      13.680 -21.376  21.729  1.00  0.00     0.179 C 
ATOM     21  C   UNL     1      12.176 -19.620  20.781  1.00  0.00     0.178 C 
ATOM     22  C   UNL     1      12.247 -20.845  21.699  1.00  0.00     0.177 C 
BRANCH  18  23
ATOM     23  O   UNL     1      15.986 -20.806  22.035  1.00  0.00    -0.385 OA
ATOM     24  H   UNL     1      15.914 -21.656  21.548  1.00  0.00     0.211 HD
ENDBRANCH  18  23
BRANCH  20  25
ATOM     25  O   UNL     1      13.759 -22.461  22.670  1.00  0.00    -0.387 OA
ATOM     26  H   UNL     1      14.002 -22.028  23.517  1.00  0.00     0.211 HD
ENDBRANCH  20  25
BRANCH  21  27
ATOM     27  C   UNL     1      10.778 -18.993  20.797  1.00  0.00     0.191 C 
BRANCH  27  28
ATOM     28  O   UNL     1       9.927 -19.684  19.880  1.00  0.00    -0.394 OA
ATOM     29  H   UNL     1       9.122 -19.909  20.389  1.00  0.00     0.210 HD
ENDBRANCH  27  28
ENDBRANCH  21  27
BRANCH  22  30
ATOM     30  O   UNL     1      11.371 -21.885  21.255  1.00  0.00    -0.387 OA
ATOM     31  H   UNL     1      11.753 -22.708  21.624  1.00  0.00     0.211 HD
ENDBRANCH  22  30
ENDBRANCH   1  17
TORSDOF 10
ENDMDL
MODEL 2
REMARK VINA RESULT:    -7.607      1.166      2.368
REMARK INTER + INTRA:         -11.353
REMARK INTER:                 -10.679
REMARK INTRA:                  -0.674
REMARK UNBOUND:                -0.411
REMARK SMILES O=C([O-])C1=CO[C@@H](O[C@@H]2O[C@H](CO)[C@@H](O)[C@H](O)[C@H]2O)[C@@H]2[C@@H](CO)CC[C@H]12
REMARK SMILES IDX 8 1 7 2 24 3 25 4 21 5 26 6 20 7 4 8 5 9 6 10 22 11 23 12
REMARK SMILES IDX 2 14 1 15 3 16 9 17 18 18 10 19 16 20 11 21 14 22 19 23
REMARK SMILES IDX 17 25 12 27 13 28 15 30
REMARK H PARENT 23 13 19 24 17 26 13 29 15 31
ROOT
ATOM      1  O   UNL     1      15.001 -17.727  21.669  1.00  0.00    -0.310 OA
ENDROOT
BRANCH   1   2
ATOM      2  C   UNL     1      16.198 -17.646  20.881  1.00  0.00     0.313 C 
ATOM      3  C   UNL     1      16.581 -15.395  17.847  1.00  0.00     0.007 C 
ATOM      4  C   UNL     1      16.011 -14.437  18.891  1.00  0.00     0.009 C 
ATOM      5  C   UNL     1      17.035 -16.611  18.647  1.00  0.00     0.024 C 
ATOM      6  C   UNL     1      15.664 -15.284  20.133  1.00  0.00     0.034 C 
ATOM      7  C   UNL     1      15.903 -16.743  19.682  1.00  0.00     0.071 C 
ATOM      8  C   UNL     1      16.513 -14.937  21.329  1.00  0.00     0.013 C 
ATOM      9  C   UNL     1      17.273 -15.847  21.953  1.00  0.00     0.196 C 
ATOM     10  O   UNL     1      17.319 -17.184  21.650  1.00  0.00    -0.472 OA
BRANCH   5  11
ATOM     11  C   UNL     1      17.234 -17.838  17.768  1.00  0.00     0.160 C 
BRANCH  11  12
ATOM     12  O   UNL     1      16.202 -17.940  16.795  1.00  0.00    -0.396 OA
ATOM     13  H   UNL     1      15.800 -17.057  16.707  1.00  0.00     0.210 HD
ENDBRANCH  11  12
ENDBRANCH   5  11
BRANCH   8  14
ATOM     14  C   UNL     1      16.501 -13.487  21.854  1.00  0.00     0.071 C 
ATOM     15  O   UNL     1      15.769 -12.679  21.218  1.00  0.00    -0.545 OA
ATOM     16  O   UNL     1      17.237 -13.287  22.862  1.00  0.00    -0.545 OA
ENDBRANCH   8  14
ENDBRANCH   1   2
BRANCH   1  17
ATOM     17  C   UNL     1      14.538 -19.064  21.819  1.00  0.00     0.286 C 
ATOM     18  C   UNL     1      13.119 -19.093  21.221  1.00  0.00     0.202 C 
ATOM     19  O   UNL     1      15.403 -19.956  21.111  1.00  0.00    -0.341 OA
ATOM     20  C   UNL     1      12.588 -20.521  21.234  1.00  0.00     0.179 C 
ATOM     21  C   UNL     1      14.955 -21.322  21.179  1.00  0.00     0.178 C 
ATOM     22  C   UNL     1      13.568 -21.469  20.542  1.00  0.00     0.177 C 
BRANCH  18  23
ATOM     23  O   UNL     1      12.201 -18.271  21.957  1.00  0.00    -0.385 OA
ATOM     24  H   UNL     1      11.508 -18.876  22.304  1.00  0.00     0.211 HD
ENDBRANCH  18  23
BRANCH  20  25
ATOM     25  O   UNL     1      11.317 -20.591  20.565  1.00  0.00    -0.387 OA
ATOM     26  H   UNL     1      11.472 -20.144  19.705  1.00  0.00     0.211 HD
ENDBRANCH  20  25
BRANCH  21  27
ATOM     27  C   UNL     1      15.995 -22.180  20.451  1.00  0.00     0.191 C 
BRANCH  27  28
ATOM     28  O   UNL     1      15.573 -22.415  19.105  1.00  0.00    -0.394 OA
ATOM     29  H   UNL     1      14.930 -23.150  19.157  1.00  0.00     0.210 HD
ENDBRANCH  27  28
ENDBRANCH  21  27
BRANCH  22  30
ATOM     30  O   UNL     1      13.081 -22.809  20.650  1.00  0.00    -0.387 OA
ATOM     31  H   UNL     1      12.797 -23.046  19.742  1.00  0.00     0.211 HD
ENDBRANCH  22  30
ENDBRANCH   1  17
TORSDOF 10
ENDMDL
MODEL 3
REMARK VINA RESULT:    -7.210      2.310      7.310
REMARK INTER + INTRA:         -10.781
REMARK INTER:                  -9.810
REMARK INTRA:                  -0.971
REMARK UNBOUND:                -0.411
REMARK SMILES O=C([O-])C1=CO[C@@H](O[C@@H]2O[C@H](CO)[C@@H](O)[C@H](O)[C@H]2O)[C@@H]2[C@@H](CO)CC[C@H]12
REMARK SMILES IDX 8 1 7 2 24 3 25 4 21 5 26 6 20 7 4 8 5 9 6 10 22 11 23 12
REMARK SMILES IDX 2 14 1 15 3 16 9 17 18 18 10 19 16 20 11 21 14 22 19 23
REMARK SMILES IDX 17 25 12 27 13 28 15 30
REMARK H PARENT 23 13 19 24 17 26 13 29 15 31
ROOT
ATOM      1  O   UNL     1      13.783 -18.634  21.569  1.00  0.00    -0.310 OA
ENDROOT
BRANCH   1   2
ATOM      2  C   UNL     1      13.429 -19.478  22.675  1.00  0.00     0.313 C 
ATOM      3  C   UNL     1      10.255 -19.066  24.717  1.00  0.00     0.007 C 
ATOM      4  C   UNL     1       9.725 -19.029  23.285  1.00  0.00     0.009 C 
ATOM      5  C   UNL     1      11.675 -19.607  24.589  1.00  0.00     0.024 C 
ATOM      6  C   UNL     1      10.956 -19.031  22.353  1.00  0.00     0.034 C 
ATOM      7  C   UNL     1      12.162 -18.903  23.311  1.00  0.00     0.071 C 
ATOM      8  C   UNL     1      11.051 -20.283  21.520  1.00  0.00     0.013 C 
ATOM      9  C   UNL     1      12.122 -21.087  21.560  1.00  0.00     0.196 C 
ATOM     10  O   UNL     1      13.267 -20.848  22.277  1.00  0.00    -0.472 OA
BRANCH   5  11
ATOM     11  C   UNL     1      12.514 -19.322  25.827  1.00  0.00     0.160 C 
BRANCH  11  12
ATOM     12  O   UNL     1      11.766 -18.594  26.793  1.00  0.00    -0.396 OA
ATOM     13  H   UNL     1      11.110 -18.061  26.307  1.00  0.00     0.210 HD
ENDBRANCH  11  12
ENDBRANCH   5  11
BRANCH   8  14
ATOM     14  C   UNL     1       9.879 -20.646  20.586  1.00  0.00     0.071 C 
ATOM     15  O   UNL     1       9.325 -21.759  20.808  1.00  0.00    -0.545 OA
ATOM     16  O   UNL     1       9.620 -19.779  19.704  1.00  0.00    -0.545 OA
ENDBRANCH   8  14
ENDBRANCH   1   2
BRANCH   1  17
ATOM     17  C   UNL     1      15.190 -18.466  21.441  1.00  0.00     0.286 C 
ATOM     18  C   UNL     1      15.575 -19.101  20.093  1.00  0.00     0.202 C 
ATOM     19  O   UNL     1      15.511 -17.072  21.453  1.00  0.00    -0.341 OA
ATOM     20  C   UNL     1      17.055 -18.862  19.818  1.00  0.00     0.179 C 
ATOM     21  C   UNL     1      16.919 -16.833  21.271  1.00  0.00     0.178 C 
ATOM     22  C   UNL     1      17.389 -17.373  19.915  1.00  0.00     0.177 C 
BRANCH  18  23
ATOM     23  O   UNL     1      15.343 -20.518  20.072  1.00  0.00    -0.385 OA
ATOM     24  H   UNL     1      15.029 -20.759  20.972  1.00  0.00     0.211 HD
ENDBRANCH  18  23
BRANCH  20  25
ATOM     25  O   UNL     1      17.407 -19.337  18.507  1.00  0.00    -0.387 OA
ATOM     26  H   UNL     1      17.196 -18.584  17.914  1.00  0.00     0.211 HD
ENDBRANCH  20  25
BRANCH  21  27
ATOM     27  C   UNL     1      17.143 -15.321  21.375  1.00  0.00     0.191 C 
BRANCH  27  28
ATOM     28  O   UNL     1      17.599 -14.988  22.688  1.00  0.00    -0.394 OA
ATOM     29  H   UNL     1      18.574 -15.066  22.654  1.00  0.00     0.210 HD
ENDBRANCH  27  28
ENDBRANCH  21  27
BRANCH  22  30
ATOM     30  O   UNL     1      18.797 -17.196  19.740  1.00  0.00    -0.387 OA
ATOM     31  H   UNL     1      18.880 -16.606  18.962  1.00  0.00     0.211 HD
ENDBRANCH  22  30
ENDBRANCH   1  17
TORSDOF 10
ENDMDL
MODEL 4
REMARK VINA RESULT:    -7.178      2.101      6.488
REMARK INTER + INTRA:         -10.736
REMARK INTER:                  -9.980
REMARK INTRA:                  -0.756
REMARK UNBOUND:                -0.411
REMARK SMILES O=C([O-])C1=CO[C@@H](O[C@@H]2O[C@H](CO)[C@@H](O)[C@H](O)[C@H]2O)[C@@H]2[C@@H](CO)CC[C@H]12
REMARK SMILES IDX 8 1 7 2 24 3 25 4 21 5 26 6 20 7 4 8 5 9 6 10 22 11 23 12
REMARK SMILES IDX 2 14 1 15 3 16 9 17 18 18 10 19 16 20 11 21 14 22 19 23
REMARK SMILES IDX 17 25 12 27 13 28 15 30
REMARK H PARENT 23 13 19 24 17 26 13 29 15 31
ROOT
ATOM      1  O   UNL     1      14.462 -17.885  21.185  1.00  0.00    -0.310 OA
ENDROOT
BRANCH   1   2
ATOM      2  C   UNL     1      14.151 -19.287  21.164  1.00  0.00     0.313 C 
ATOM      3  C   UNL     1      13.313 -21.313  24.264  1.00  0.00     0.007 C 
ATOM      4  C   UNL     1      12.406 -20.094  24.419  1.00  0.00     0.009 C 
ATOM      5  C   UNL     1      13.783 -21.261  22.814  1.00  0.00     0.024 C 
ATOM      6  C   UNL     1      12.775 -19.114  23.285  1.00  0.00     0.034 C 
ATOM      7  C   UNL     1      14.012 -19.753  22.614  1.00  0.00     0.071 C 
ATOM      8  C   UNL     1      11.656 -18.923  22.295  1.00  0.00     0.013 C 
ATOM      9  C   UNL     1      11.806 -19.181  20.989  1.00  0.00     0.196 C 
ATOM     10  O   UNL     1      12.977 -19.565  20.386  1.00  0.00    -0.472 OA
BRANCH   5  11
ATOM     11  C   UNL     1      15.014 -22.125  22.576  1.00  0.00     0.160 C 
BRANCH  11  12
ATOM     12  O   UNL     1      16.109 -21.680  23.367  1.00  0.00    -0.396 OA
ATOM     13  H   UNL     1      16.027 -22.107  24.239  1.00  0.00     0.210 HD
ENDBRANCH  11  12
ENDBRANCH   5  11
BRANCH   8  14
ATOM     14  C   UNL     1      10.294 -18.406  22.802  1.00  0.00     0.071 C 
ATOM     15  O   UNL     1       9.280 -19.040  22.396  1.00  0.00    -0.545 OA
ATOM     16  O   UNL     1      10.364 -17.399  23.564  1.00  0.00    -0.545 OA
ENDBRANCH   8  14
ENDBRANCH   1   2
BRANCH   1  17
ATOM     17  C   UNL     1      15.478 -17.539  20.251  1.00  0.00     0.286 C 
ATOM     18  C   UNL     1      16.788 -17.458  21.055  1.00  0.00     0.202 C 
ATOM     19  O   UNL     1      15.566 -18.548  19.241  1.00  0.00    -0.341 OA
ATOM     20  C   UNL     1      17.955 -17.205  20.108  1.00  0.00     0.179 C 
ATOM     21  C   UNL     1      16.617 -18.283  18.293  1.00  0.00     0.178 C 
ATOM     22  C   UNL     1      17.981 -18.249  18.991  1.00  0.00     0.177 C 
BRANCH  18  23
ATOM     23  O   UNL     1      16.767 -16.400  22.025  1.00  0.00    -0.385 OA
ATOM     24  H   UNL     1      17.208 -15.630  21.603  1.00  0.00     0.211 HD
ENDBRANCH  18  23
BRANCH  20  25
ATOM     25  O   UNL     1      19.202 -17.252  20.823  1.00  0.00    -0.387 OA
ATOM     26  H   UNL     1      18.992 -16.862  21.699  1.00  0.00     0.211 HD
ENDBRANCH  20  25
BRANCH  21  27
ATOM     27  C   UNL     1      16.563 -19.385  17.230  1.00  0.00     0.191 C 
BRANCH  27  28
ATOM     28  O   UNL     1      16.247 -18.816  15.957  1.00  0.00    -0.394 OA
ATOM     29  H   UNL     1      17.108 -18.587  15.553  1.00  0.00     0.210 HD
ENDBRANCH  27  28
ENDBRANCH  21  27
BRANCH  22  30
ATOM     30  O   UNL     1      19.032 -17.931  18.075  1.00  0.00    -0.387 OA
ATOM     31  H   UNL     1      18.754 -17.087  17.660  1.00  0.00     0.211 HD
ENDBRANCH  22  30
ENDBRANCH   1  17
TORSDOF 10
ENDMDL
MODEL 5
REMARK VINA RESULT:    -7.122      3.727      7.186
REMARK INTER + INTRA:         -10.655
REMARK INTER:                  -9.737
REMARK INTRA:                  -0.917
REMARK UNBOUND:                -0.411
REMARK SMILES O=C([O-])C1=CO[C@@H](O[C@@H]2O[C@H](CO)[C@@H](O)[C@H](O)[C@H]2O)[C@@H]2[C@@H](CO)CC[C@H]12
REMARK SMILES IDX 8 1 7 2 24 3 25 4 21 5 26 6 20 7 4 8 5 9 6 10 22 11 23 12
REMARK SMILES IDX 2 14 1 15 3 16 9 17 18 18 10 19 16 20 11 21 14 22 19 23
REMARK SMILES IDX 17 25 12 27 13 28 15 30
REMARK H PARENT 23 13 19 24 17 26 13 29 15 31
ROOT
ATOM      1  O   UNL     1      18.577 -18.000  18.075  1.00  0.00    -0.310 OA
ENDROOT
BRANCH   1   2
ATOM      2  C   UNL     1      17.179 -18.282  17.911  1.00  0.00     0.313 C 
ATOM      3  C   UNL     1      14.840 -19.119  20.782  1.00  0.00     0.007 C 
ATOM      4  C   UNL     1      15.548 -17.867  21.296  1.00  0.00     0.009 C 
ATOM      5  C   UNL     1      15.157 -19.156  19.291  1.00  0.00     0.024 C 
ATOM      6  C   UNL     1      16.646 -17.520  20.268  1.00  0.00     0.034 C 
ATOM      7  C   UNL     1      16.627 -18.704  19.274  1.00  0.00     0.071 C 
ATOM      8  C   UNL     1      16.392 -16.213  19.565  1.00  0.00     0.013 C 
ATOM      9  C   UNL     1      16.287 -16.128  18.232  1.00  0.00     0.196 C 
ATOM     10  O   UNL     1      16.466 -17.167  17.354  1.00  0.00    -0.472 OA
BRANCH   5  11
ATOM     11  C   UNL     1      14.910 -20.530  18.684  1.00  0.00     0.160 C 
BRANCH  11  12
ATOM     12  O   UNL     1      14.155 -21.350  19.567  1.00  0.00    -0.396 OA
ATOM     13  H   UNL     1      14.337 -22.276  19.326  1.00  0.00     0.210 HD
ENDBRANCH  11  12
ENDBRANCH   5  11
BRANCH   8  14
ATOM     14  C   UNL     1      16.256 -14.929  20.408  1.00  0.00     0.071 C 
ATOM     15  O   UNL     1      17.093 -14.796  21.345  1.00  0.00    -0.545 OA
ATOM     16  O   UNL     1      15.312 -14.166  20.056  1.00  0.00    -0.545 OA
ENDBRANCH   8  14
ENDBRANCH   1   2
BRANCH   1  17
ATOM     17  C   UNL     1      19.393 -18.758  17.191  1.00  0.00     0.286 C 
ATOM     18  C   UNL     1      20.581 -17.850  16.823  1.00  0.00     0.202 C 
ATOM     19  O   UNL     1      19.848 -19.942  17.852  1.00  0.00    -0.341 OA
ATOM     20  C   UNL     1      21.573 -18.627  15.965  1.00  0.00     0.179 C 
ATOM     21  C   UNL     1      20.727 -20.727  17.024  1.00  0.00     0.178 C 
ATOM     22  C   UNL     1      21.982 -19.928  16.657  1.00  0.00     0.177 C 
BRANCH  18  23
ATOM     23  O   UNL     1      20.171 -16.689  16.085  1.00  0.00    -0.385 OA
ATOM     24  H   UNL     1      19.239 -16.513  16.343  1.00  0.00     0.211 HD
ENDBRANCH  18  23
BRANCH  20  25
ATOM     25  O   UNL     1      22.749 -17.838  15.716  1.00  0.00    -0.387 OA
ATOM     26  H   UNL     1      22.991 -17.482  16.598  1.00  0.00     0.211 HD
ENDBRANCH  20  25
BRANCH  21  27
ATOM     27  C   UNL     1      21.084 -21.993  17.810  1.00  0.00     0.191 C 
BRANCH  27  28
ATOM     28  O   UNL     1      22.437 -21.914  18.266  1.00  0.00    -0.394 OA
ATOM     29  H   UNL     1      22.871 -22.728  17.939  1.00  0.00     0.210 HD
ENDBRANCH  27  28
ENDBRANCH  21  27
BRANCH  22  30
ATOM     30  O   UNL     1      22.842 -20.671  15.788  1.00  0.00    -0.387 OA
ATOM     31  H   UNL     1      22.300 -21.432  15.492  1.00  0.00     0.211 HD
ENDBRANCH  22  30
ENDBRANCH   1  17
TORSDOF 10
ENDMDL
MODEL 6
REMARK VINA RESULT:    -7.010      3.534      7.261
REMARK INTER + INTRA:         -10.495
REMARK INTER:                  -9.706
REMARK INTRA:                  -0.788
REMARK UNBOUND:                -0.411
REMARK SMILES O=C([O-])C1=CO[C@@H](O[C@@H]2O[C@H](CO)[C@@H](O)[C@H](O)[C@H]2O)[C@@H]2[C@@H](CO)CC[C@H]12
REMARK SMILES IDX 8 1 7 2 24 3 25 4 21 5 26 6 20 7 4 8 5 9 6 10 22 11 23 12
REMARK SMILES IDX 2 14 1 15 3 16 9 17 18 18 10 19 16 20 11 21 14 22 19 23
REMARK SMILES IDX 17 25 12 27 13 28 15 30
REMARK H PARENT 23 13 19 24 17 26 13 29 15 31
ROOT
ATOM      1  O   UNL     1      18.441 -18.794  18.105  1.00  0.00    -0.310 OA
ENDROOT
BRANCH   1   2
ATOM      2  C   UNL     1      17.019 -18.983  18.054  1.00  0.00     0.313 C 
ATOM      3  C   UNL     1      14.775 -18.970  21.118  1.00  0.00     0.007 C 
ATOM      4  C   UNL     1      15.604 -17.703  21.319  1.00  0.00     0.009 C 
ATOM      5  C   UNL     1      15.009 -19.357  19.661  1.00  0.00     0.024 C 
ATOM      6  C   UNL     1      16.671 -17.685  20.203  1.00  0.00     0.034 C 
ATOM      7  C   UNL     1      16.508 -19.049  19.495  1.00  0.00     0.071 C 
ATOM      8  C   UNL     1      16.483 -16.543  19.238  1.00  0.00     0.013 C 
ATOM      9  C   UNL     1      16.314 -16.740  17.924  1.00  0.00     0.196 C 
ATOM     10  O   UNL     1      16.367 -17.956  17.291  1.00  0.00    -0.472 OA
BRANCH   5  11
ATOM     11  C   UNL     1      14.626 -20.803  19.380  1.00  0.00     0.160 C 
BRANCH  11  12
ATOM     12  O   UNL     1      13.519 -21.201  20.179  1.00  0.00    -0.396 OA
ATOM     13  H   UNL     1      12.710 -20.963  19.690  1.00  0.00     0.210 HD
ENDBRANCH  11  12
ENDBRANCH   5  11
BRANCH   8  14
ATOM     14  C   UNL     1      16.491 -15.100  19.782  1.00  0.00     0.071 C 
ATOM     15  O   UNL     1      17.083 -14.933  20.885  1.00  0.00    -0.545 OA
ATOM     16  O   UNL     1      15.895 -14.259  19.051  1.00  0.00    -0.545 OA
ENDBRANCH   8  14
ENDBRANCH   1   2
BRANCH   1  17
ATOM     17  C   UNL     1      19.047 -18.880  16.820  1.00  0.00     0.286 C 
ATOM     18  C   UNL     1      20.339 -18.046  16.902  1.00  0.00     0.202 C 
ATOM     19  O   UNL     1      19.345 -20.246  16.519  1.00  0.00    -0.341 OA
ATOM     20  C   UNL     1      21.117 -18.178  15.598  1.00  0.00     0.179 C 
ATOM     21  C   UNL     1      20.012 -20.394  15.253  1.00  0.00     0.178 C 
ATOM     22  C   UNL     1      21.353 -19.650  15.256  1.00  0.00     0.177 C 
BRANCH  18  23
ATOM     23  O   UNL     1      20.075 -16.653  17.122  1.00  0.00    -0.385 OA
ATOM     24  H   UNL     1      20.939 -16.192  17.040  1.00  0.00     0.211 HD
ENDBRANCH  18  23
BRANCH  20  25
ATOM     25  O   UNL     1      22.386 -17.511  15.699  1.00  0.00    -0.387 OA
ATOM     26  H   UNL     1      23.045 -18.228  15.579  1.00  0.00     0.211 HD
ENDBRANCH  20  25
BRANCH  21  27
ATOM     27  C   UNL     1      20.210 -21.895  15.013  1.00  0.00     0.191 C 
BRANCH  27  28
ATOM     28  O   UNL     1      20.325 -22.150  13.611  1.00  0.00    -0.394 OA
ATOM     29  H   UNL     1      19.843 -22.987  13.457  1.00  0.00     0.210 HD
ENDBRANCH  27  28
ENDBRANCH  21  27
BRANCH  22  30
ATOM     30  O   UNL     1      22.005 -19.738  13.986  1.00  0.00    -0.387 OA
ATOM     31  H   UNL     1      22.316 -20.666  13.929  1.00  0.00     0.211 HD
ENDBRANCH  22  30
ENDBRANCH   1  17
TORSDOF 10
ENDMDL
MODEL 7
REMARK VINA RESULT:    -6.839      3.474      6.931
REMARK INTER + INTRA:         -10.248
REMARK INTER:                  -9.452
REMARK INTRA:                  -0.796
REMARK UNBOUND:                -0.411
REMARK SMILES O=C([O-])C1=CO[C@@H](O[C@@H]2O[C@H](CO)[C@@H](O)[C@H](O)[C@H]2O)[C@@H]2[C@@H](CO)CC[C@H]12
REMARK SMILES IDX 8 1 7 2 24 3 25 4 21 5 26 6 20 7 4 8 5 9 6 10 22 11 23 12
REMARK SMILES IDX 2 14 1 15 3 16 9 17 18 18 10 19 16 20 11 21 14 22 19 23
REMARK SMILES IDX 17 25 12 27 13 28 15 30
REMARK H PARENT 23 13 19 24 17 26 13 29 15 31
ROOT
ATOM      1  O   UNL     1      19.140 -18.098  18.879  1.00  0.00    -0.310 OA
ENDROOT
BRANCH   1   2
ATOM      2  C   UNL     1      17.794 -18.137  18.382  1.00  0.00     0.313 C 
ATOM      3  C   UNL     1      14.767 -18.903  20.543  1.00  0.00     0.007 C 
ATOM      4  C   UNL     1      15.493 -17.842  21.368  1.00  0.00     0.009 C 
ATOM      5  C   UNL     1      15.412 -18.827  19.163  1.00  0.00     0.024 C 
ATOM      6  C   UNL     1      16.834 -17.563  20.656  1.00  0.00     0.034 C 
ATOM      7  C   UNL     1      16.893 -18.613  19.523  1.00  0.00     0.071 C 
ATOM      8  C   UNL     1      16.920 -16.163  20.107  1.00  0.00     0.013 C 
ATOM      9  C   UNL     1      17.137 -15.917  18.809  1.00  0.00     0.196 C 
ATOM     10  O   UNL     1      17.379 -16.869  17.851  1.00  0.00    -0.472 OA
BRANCH   5  11
ATOM     11  C   UNL     1      15.137 -20.071  18.329  1.00  0.00     0.160 C 
BRANCH  11  12
ATOM     12  O   UNL     1      15.975 -21.148  18.730  1.00  0.00    -0.396 OA
ATOM     13  H   UNL     1      16.724 -21.177  18.108  1.00  0.00     0.210 HD
ENDBRANCH  11  12
ENDBRANCH   5  11
BRANCH   8  14
ATOM     14  C   UNL     1      16.760 -14.973  21.076  1.00  0.00     0.071 C 
ATOM     15  O   UNL     1      17.250 -15.134  22.229  1.00  0.00    -0.545 OA
ATOM     16  O   UNL     1      16.148 -13.979  20.591  1.00  0.00    -0.545 OA
ENDBRANCH   8  14
ENDBRANCH   1   2
BRANCH   1  17
ATOM     17  C   UNL     1      20.070 -18.686  17.976  1.00  0.00     0.286 C 
ATOM     18  C   UNL     1      19.309 -19.812  17.253  1.00  0.00     0.202 C 
ATOM     19  O   UNL     1      20.523 -17.701  17.042  1.00  0.00    -0.341 OA
ATOM     20  C   UNL     1      20.199 -20.423  16.178  1.00  0.00     0.179 C 
ATOM     21  C   UNL     1      21.427 -18.249  16.065  1.00  0.00     0.178 C 
ATOM     22  C   UNL     1      20.736 -19.341  15.240  1.00  0.00     0.177 C 
BRANCH  18  23
ATOM     23  O   UNL     1      18.909 -20.861  18.147  1.00  0.00    -0.385 OA
ATOM     24  H   UNL     1      18.119 -21.282  17.742  1.00  0.00     0.211 HD
ENDBRANCH  18  23
BRANCH  20  25
ATOM     25  O   UNL     1      19.466 -21.390  15.406  1.00  0.00    -0.387 OA
ATOM     26  H   UNL     1      18.859 -21.806  16.056  1.00  0.00     0.211 HD
ENDBRANCH  20  25
BRANCH  21  27
ATOM     27  C   UNL     1      21.893 -17.092  15.176  1.00  0.00     0.191 C 
BRANCH  27  28
ATOM     28  O   UNL     1      23.097 -17.459  14.496  1.00  0.00    -0.394 OA
ATOM     29  H   UNL     1      23.577 -16.620  14.344  1.00  0.00     0.210 HD
ENDBRANCH  27  28
ENDBRANCH  21  27
BRANCH  22  30
ATOM     30  O   UNL     1      21.635 -19.937  14.301  1.00  0.00    -0.387 OA
ATOM     31  H   UNL     1      21.115 -20.018  13.475  1.00  0.00     0.211 HD
ENDBRANCH  22  30
ENDBRANCH   1  17
TORSDOF 10
ENDMDL
MODEL 8
REMARK VINA RESULT:    -6.814      2.037      7.199
REMARK INTER + INTRA:         -10.213
REMARK INTER:                  -9.439
REMARK INTRA:                  -0.774
REMARK UNBOUND:                -0.411
REMARK SMILES O=C([O-])C1=CO[C@@H](O[C@@H]2O[C@H](CO)[C@@H](O)[C@H](O)[C@H]2O)[C@@H]2[C@@H](CO)CC[C@H]12
REMARK SMILES IDX 8 1 7 2 24 3 25 4 21 5 26 6 20 7 4 8 5 9 6 10 22 11 23 12
REMARK SMILES IDX 2 14 1 15 3 16 9 17 18 18 10 19 16 20 11 21 14 22 19 23
REMARK SMILES IDX 17 25 12 27 13 28 15 30
REMARK H PARENT 23 13 19 24 17 26 13 29 15 31
ROOT
ATOM      1  O   UNL     1      13.714 -18.455  20.893  1.00  0.00    -0.310 OA
ENDROOT
BRANCH   1   2
ATOM      2  C   UNL     1      12.972 -18.577  22.116  1.00  0.00     0.313 C 
ATOM      3  C   UNL     1       9.403 -19.858  22.302  1.00  0.00     0.007 C 
ATOM      4  C   UNL     1      10.083 -20.920  21.440  1.00  0.00     0.009 C 
ATOM      5  C   UNL     1      10.552 -19.074  22.925  1.00  0.00     0.024 C 
ATOM      6  C   UNL     1      11.517 -20.420  21.163  1.00  0.00     0.034 C 
ATOM      7  C   UNL     1      11.545 -18.992  21.753  1.00  0.00     0.071 C 
ATOM      8  C   UNL     1      12.569 -21.293  21.797  1.00  0.00     0.013 C 
ATOM      9  C   UNL     1      13.464 -20.811  22.669  1.00  0.00     0.196 C 
ATOM     10  O   UNL     1      13.591 -19.494  23.031  1.00  0.00    -0.472 OA
BRANCH   5  11
ATOM     11  C   UNL     1      10.102 -17.724  23.468  1.00  0.00     0.160 C 
BRANCH  11  12
ATOM     12  O   UNL     1      10.160 -17.701  24.889  1.00  0.00    -0.396 OA
ATOM     13  H   UNL     1      10.807 -17.017  25.139  1.00  0.00     0.210 HD
ENDBRANCH  11  12
ENDBRANCH   5  11
BRANCH   8  14
ATOM     14  C   UNL     1      12.619 -22.788  21.423  1.00  0.00     0.071 C 
ATOM     15  O   UNL     1      12.859 -23.042  20.209  1.00  0.00    -0.545 OA
ATOM     16  O   UNL     1      12.407 -23.579  22.386  1.00  0.00    -0.545 OA
ENDBRANCH   8  14
ENDBRANCH   1   2
BRANCH   1  17
ATOM     17  C   UNL     1      15.116 -18.353  21.115  1.00  0.00     0.286 C 
ATOM     18  C   UNL     1      15.789 -19.056  19.922  1.00  0.00     0.202 C 
ATOM     19  O   UNL     1      15.496 -16.975  21.170  1.00  0.00    -0.341 OA
ATOM     20  C   UNL     1      17.301 -18.893  20.018  1.00  0.00     0.179 C 
ATOM     21  C   UNL     1      16.916 -16.806  21.338  1.00  0.00     0.178 C 
ATOM     22  C   UNL     1      17.678 -17.418  20.157  1.00  0.00     0.177 C 
BRANCH  18  23
ATOM     23  O   UNL     1      15.496 -20.460  19.881  1.00  0.00    -0.385 OA
ATOM     24  H   UNL     1      14.530 -20.546  20.044  1.00  0.00     0.211 HD
ENDBRANCH  18  23
BRANCH  20  25
ATOM     25  O   UNL     1      17.941 -19.432  18.848  1.00  0.00    -0.387 OA
ATOM     26  H   UNL     1      17.245 -19.978  18.423  1.00  0.00     0.211 HD
ENDBRANCH  20  25
BRANCH  21  27
ATOM     27  C   UNL     1      17.186 -15.302  21.455  1.00  0.00     0.191 C 
BRANCH  27  28
ATOM     28  O   UNL     1      17.658 -14.996  22.770  1.00  0.00    -0.394 OA
ATOM     29  H   UNL     1      17.670 -14.019  22.822  1.00  0.00     0.210 HD
ENDBRANCH  27  28
ENDBRANCH  21  27
BRANCH  22  30
ATOM     30  O   UNL     1      19.093 -17.310  20.333  1.00  0.00    -0.387 OA
ATOM     31  H   UNL     1      19.468 -17.462  19.441  1.00  0.00     0.211 HD
ENDBRANCH  22  30
ENDBRANCH   1  17
TORSDOF 10
ENDMDL
MODEL 9
REMARK VINA RESULT:    -6.800      1.901      7.227
REMARK INTER + INTRA:         -10.192
REMARK INTER:                  -9.374
REMARK INTRA:                  -0.818
REMARK UNBOUND:                -0.411
REMARK SMILES O=C([O-])C1=CO[C@@H](O[C@@H]2O[C@H](CO)[C@@H](O)[C@H](O)[C@H]2O)[C@@H]2[C@@H](CO)CC[C@H]12
REMARK SMILES IDX 8 1 7 2 24 3 25 4 21 5 26 6 20 7 4 8 5 9 6 10 22 11 23 12
REMARK SMILES IDX 2 14 1 15 3 16 9 17 18 18 10 19 16 20 11 21 14 22 19 23
REMARK SMILES IDX 17 25 12 27 13 28 15 30
REMARK H PARENT 23 13 19 24 17 26 13 29 15 31
ROOT
ATOM      1  O   UNL     1      14.039 -18.974  21.286  1.00  0.00    -0.310 OA
ENDROOT
BRANCH   1   2
ATOM      2  C   UNL     1      14.069 -20.344  21.716  1.00  0.00     0.313 C 
ATOM      3  C   UNL     1      12.413 -21.596  24.895  1.00  0.00     0.007 C 
ATOM      4  C   UNL     1      11.296 -20.781  24.248  1.00  0.00     0.009 C 
ATOM      5  C   UNL     1      13.443 -21.785  23.787  1.00  0.00     0.024 C 
ATOM      6  C   UNL     1      11.906 -20.087  23.012  1.00  0.00     0.034 C 
ATOM      7  C   UNL     1      13.415 -20.410  23.098  1.00  0.00     0.071 C 
ATOM      8  C   UNL     1      11.315 -20.580  21.717  1.00  0.00     0.013 C 
ATOM      9  C   UNL     1      12.068 -21.119  20.749  1.00  0.00     0.196 C 
ATOM     10  O   UNL     1      13.436 -21.219  20.770  1.00  0.00    -0.472 OA
BRANCH   5  11
ATOM     11  C   UNL     1      14.806 -22.193  24.330  1.00  0.00     0.160 C 
BRANCH  11  12
ATOM     12  O   UNL     1      15.394 -23.207  23.524  1.00  0.00    -0.396 OA
ATOM     13  H   UNL     1      14.982 -24.052  23.779  1.00  0.00     0.210 HD
ENDBRANCH  11  12
ENDBRANCH   5  11
BRANCH   8  14
ATOM     14  C   UNL     1       9.794 -20.455  21.498  1.00  0.00     0.071 C 
ATOM     15  O   UNL     1       9.254 -19.418  21.976  1.00  0.00    -0.545 OA
ATOM     16  O   UNL     1       9.272 -21.417  20.867  1.00  0.00    -0.545 OA
ENDBRANCH   8  14
ENDBRANCH   1   2
BRANCH   1  17
ATOM     17  C   UNL     1      15.280 -18.550  20.734  1.00  0.00     0.286 C 
ATOM     18  C   UNL     1      15.072 -18.493  19.210  1.00  0.00     0.202 C 
ATOM     19  O   UNL     1      15.618 -17.258  21.247  1.00  0.00    -0.341 OA
ATOM     20  C   UNL     1      16.323 -17.933  18.543  1.00  0.00     0.179 C 
ATOM     21  C   UNL     1      16.840 -16.748  20.683  1.00  0.00     0.178 C 
ATOM     22  C   UNL     1      16.710 -16.590  19.163  1.00  0.00     0.177 C 
BRANCH  18  23
ATOM     23  O   UNL     1      14.812 -19.788  18.647  1.00  0.00    -0.385 OA
ATOM     24  H   UNL     1      15.232 -19.791  17.759  1.00  0.00     0.211 HD
ENDBRANCH  18  23
BRANCH  20  25
ATOM     25  O   UNL     1      16.105 -17.753  17.133  1.00  0.00    -0.387 OA
ATOM     26  H   UNL     1      16.715 -18.395  16.712  1.00  0.00     0.211 HD
ENDBRANCH  20  25
BRANCH  21  27
ATOM     27  C   UNL     1      17.129 -15.403  21.359  1.00  0.00     0.191 C 
BRANCH  27  28
ATOM     28  O   UNL     1      17.460 -15.615  22.734  1.00  0.00    -0.394 OA
ATOM     29  H   UNL     1      16.863 -16.326  23.040  1.00  0.00     0.210 HD
ENDBRANCH  27  28
ENDBRANCH  21  27
BRANCH  22  30
ATOM     30  O   UNL     1      17.934 -16.137  18.577  1.00  0.00    -0.387 OA
ATOM     31  H   UNL     1      17.960 -15.176  18.764  1.00  0.00     0.211 HD
ENDBRANCH  22  30
ENDBRANCH   1  17
TORSDOF 10
ENDMDL
