MODEL 1
REMARK VINA RESULT:    -6.929      0.000      0.000
REMARK INTER + INTRA:          -8.092
REMARK INTER:                  -7.941
REMARK INTRA:                  -0.150
REMARK UNBOUND:                -0.150
REMARK SMILES O=C([O-])/C=C/c1ccc(O)cc1
REMARK SMILES IDX 7 1 8 2 9 3 11 4 12 5 6 6 5 7 4 8 2 9 1 10 3 11 10 12
REMARK H PARENT 10 13
ROOT
ATOM      1  C   UNL     1      17.108 -15.335  21.961  1.00  0.00     0.012 A 
ATOM      2  C   UNL     1      17.129 -15.932  20.698  1.00  0.00     0.047 A 
ATOM      3  C   UNL     1      16.694 -15.214  19.591  1.00  0.00     0.115 A 
ATOM      4  C   UNL     1      16.234 -13.908  19.726  1.00  0.00     0.047 A 
ATOM      5  C   UNL     1      16.215 -13.316  20.993  1.00  0.00     0.012 A 
ATOM      6  C   UNL     1      16.663 -14.017  22.121  1.00  0.00    -0.025 A 
ENDROOT
BRANCH   6   7
ATOM      7  C   UNL     1      16.594 -13.357  23.432  1.00  0.00     0.010 C 
ATOM      8  C   UNL     1      15.866 -12.264  23.709  1.00  0.00     0.025 C 
BRANCH   8   9
ATOM      9  C   UNL     1      15.831 -11.636  25.104  1.00  0.00     0.064 C 
ATOM     10  O   UNL     1      15.809 -12.483  26.041  1.00  0.00    -0.545 OA
ATOM     11  O   UNL     1      15.830 -10.375  25.155  1.00  0.00    -0.545 OA
ENDBRANCH   8   9
ENDBRANCH   6   7
BRANCH   3  12
ATOM     12  O   UNL     1      16.729 -15.829  18.374  1.00  0.00    -0.508 OA
ATOM     13  H   UNL     1      15.846 -16.191  18.197  1.00  0.00     0.293 HD
ENDBRANCH   3  12
TORSDOF 3
ENDMDL
MODEL 2
REMARK VINA RESULT:    -6.924      1.368      5.762
REMARK INTER + INTRA:          -8.087
REMARK INTER:                  -7.952
REMARK INTRA:                  -0.134
REMARK UNBOUND:                -0.150
REMARK SMILES O=C([O-])/C=C/c1ccc(O)cc1
REMARK SMILES IDX 7 1 8 2 9 3 11 4 12 5 6 6 5 7 4 8 2 9 1 10 3 11 10 12
REMARK H PARENT 10 13
ROOT
ATOM      1  C   UNL     1      16.965 -14.548  22.306  1.00  0.00     0.012 A 
ATOM      2  C   UNL     1      17.306 -13.789  23.429  1.00  0.00     0.047 A 
ATOM      3  C   UNL     1      16.970 -12.442  23.477  1.00  0.00     0.115 A 
ATOM      4  C   UNL     1      16.300 -11.838  22.418  1.00  0.00     0.047 A 
ATOM      5  C   UNL     1      15.961 -12.602  21.296  1.00  0.00     0.012 A 
ATOM      6  C   UNL     1      16.277 -13.966  21.233  1.00  0.00    -0.025 A 
ENDROOT
BRANCH   6   7
ATOM      7  C   UNL     1      15.924 -14.714  20.019  1.00  0.00     0.010 C 
ATOM      8  C   UNL     1      16.691 -15.650  19.438  1.00  0.00     0.025 C 
BRANCH   8   9
ATOM      9  C   UNL     1      16.253 -16.400  18.178  1.00  0.00     0.064 C 
ATOM     10  O   UNL     1      16.133 -17.647  18.346  1.00  0.00    -0.545 OA
ATOM     11  O   UNL     1      16.067 -15.703  17.143  1.00  0.00    -0.545 OA
ENDBRANCH   8   9
ENDBRANCH   6   7
BRANCH   3  12
ATOM     12  O   UNL     1      17.320 -11.734  24.589  1.00  0.00    -0.508 OA
ATOM     13  H   UNL     1      16.700 -11.970  25.300  1.00  0.00     0.293 HD
ENDBRANCH   3  12
TORSDOF 3
ENDMDL
MODEL 3
REMARK VINA RESULT:    -6.874      0.215      1.409
REMARK INTER + INTRA:          -8.028
REMARK INTER:                  -7.892
REMARK INTRA:                  -0.136
REMARK UNBOUND:                -0.150
REMARK SMILES O=C([O-])/C=C/c1ccc(O)cc1
REMARK SMILES IDX 7 1 8 2 9 3 11 4 12 5 6 6 5 7 4 8 2 9 1 10 3 11 10 12
REMARK H PARENT 10 13
ROOT
ATOM      1  C   UNL     1      16.277 -13.191  21.024  1.00  0.00     0.012 A 
ATOM      2  C   UNL     1      16.299 -13.779  19.756  1.00  0.00     0.047 A 
ATOM      3  C   UNL     1      16.706 -15.099  19.618  1.00  0.00     0.115 A 
ATOM      4  C   UNL     1      17.096 -15.843  20.727  1.00  0.00     0.047 A 
ATOM      5  C   UNL     1      17.072 -15.250  21.993  1.00  0.00     0.012 A 
ATOM      6  C   UNL     1      16.651 -13.923  22.158  1.00  0.00    -0.025 A 
ENDROOT
BRANCH   6   7
ATOM      7  C   UNL     1      16.673 -13.340  23.507  1.00  0.00     0.010 C 
ATOM      8  C   UNL     1      15.904 -12.321  23.919  1.00  0.00     0.025 C 
BRANCH   8   9
ATOM      9  C   UNL     1      15.972 -11.771  25.346  1.00  0.00     0.064 C 
ATOM     10  O   UNL     1      15.869 -12.660  26.237  1.00  0.00    -0.545 OA
ATOM     11  O   UNL     1      16.119 -10.523  25.463  1.00  0.00    -0.545 OA
ENDBRANCH   8   9
ENDBRANCH   6   7
BRANCH   3  12
ATOM     12  O   UNL     1      16.715 -15.639  18.365  1.00  0.00    -0.508 OA
ATOM     13  H   UNL     1      17.314 -16.403  18.374  1.00  0.00     0.293 HD
ENDBRANCH   3  12
TORSDOF 3
ENDMDL
MODEL 4
REMARK VINA RESULT:    -6.854      1.561      5.544
REMARK INTER + INTRA:          -8.006
REMARK INTER:                  -7.868
REMARK INTRA:                  -0.137
REMARK UNBOUND:                -0.150
REMARK SMILES O=C([O-])/C=C/c1ccc(O)cc1
REMARK SMILES IDX 7 1 8 2 9 3 11 4 12 5 6 6 5 7 4 8 2 9 1 10 3 11 10 12
REMARK H PARENT 10 13
ROOT
ATOM      1  C   UNL     1      17.061 -13.753  23.399  1.00  0.00     0.012 A 
ATOM      2  C   UNL     1      16.811 -12.617  24.173  1.00  0.00     0.047 A 
ATOM      3  C   UNL     1      16.150 -11.533  23.610  1.00  0.00     0.115 A 
ATOM      4  C   UNL     1      15.738 -11.563  22.282  1.00  0.00     0.047 A 
ATOM      5  C   UNL     1      15.990 -12.702  21.511  1.00  0.00     0.012 A 
ATOM      6  C   UNL     1      16.643 -13.814  22.063  1.00  0.00    -0.025 A 
ENDROOT
BRANCH   6   7
ATOM      7  C   UNL     1      16.909 -14.973  21.201  1.00  0.00     0.010 C 
ATOM      8  C   UNL     1      17.545 -16.091  21.585  1.00  0.00     0.025 C 
BRANCH   8   9
ATOM      9  C   UNL     1      17.777 -17.267  20.634  1.00  0.00     0.064 C 
ATOM     10  O   UNL     1      16.713 -17.845  20.273  1.00  0.00    -0.545 OA
ATOM     11  O   UNL     1      18.976 -17.516  20.327  1.00  0.00    -0.545 OA
ENDBRANCH   8   9
ENDBRANCH   6   7
BRANCH   3  12
ATOM     12  O   UNL     1      15.924 -10.442  24.397  1.00  0.00    -0.508 OA
ATOM     13  H   UNL     1      15.008 -10.156  24.254  1.00  0.00     0.293 HD
ENDBRANCH   3  12
TORSDOF 3
ENDMDL
MODEL 5
REMARK VINA RESULT:    -6.838      1.266      5.911
REMARK INTER + INTRA:          -7.988
REMARK INTER:                  -7.842
REMARK INTRA:                  -0.147
REMARK UNBOUND:                -0.150
REMARK SMILES O=C([O-])/C=C/c1ccc(O)cc1
REMARK SMILES IDX 7 1 8 2 9 3 11 4 12 5 6 6 5 7 4 8 2 9 1 10 3 11 10 12
REMARK H PARENT 10 13
ROOT
ATOM      1  C   UNL     1      15.848 -12.427  21.354  1.00  0.00     0.012 A 
ATOM      2  C   UNL     1      16.156 -11.761  22.544  1.00  0.00     0.047 A 
ATOM      3  C   UNL     1      16.835 -12.433  23.552  1.00  0.00     0.115 A 
ATOM      4  C   UNL     1      17.209 -13.764  23.393  1.00  0.00     0.047 A 
ATOM      5  C   UNL     1      16.898 -14.426  22.201  1.00  0.00     0.012 A 
ATOM      6  C   UNL     1      16.227 -13.762  21.164  1.00  0.00    -0.025 A 
ENDROOT
BRANCH   6   7
ATOM      7  C   UNL     1      15.900 -14.513  19.944  1.00  0.00     0.010 C 
ATOM      8  C   UNL     1      16.529 -15.623  19.529  1.00  0.00     0.025 C 
BRANCH   8   9
ATOM      9  C   UNL     1      16.126 -16.363  18.251  1.00  0.00     0.064 C 
ATOM     10  O   UNL     1      15.966 -17.606  18.414  1.00  0.00    -0.545 OA
ATOM     11  O   UNL     1      16.003 -15.662  17.209  1.00  0.00    -0.545 OA
ENDBRANCH   8   9
ENDBRANCH   6   7
BRANCH   3  12
ATOM     12  O   UNL     1      17.118 -11.751  24.699  1.00  0.00    -0.508 OA
ATOM     13  H   UNL     1      18.079 -11.774  24.830  1.00  0.00     0.293 HD
ENDBRANCH   3  12
TORSDOF 3
ENDMDL
MODEL 6
REMARK VINA RESULT:    -6.730      1.425      5.906
REMARK INTER + INTRA:          -7.864
REMARK INTER:                  -7.714
REMARK INTRA:                  -0.150
REMARK UNBOUND:                -0.150
REMARK SMILES O=C([O-])/C=C/c1ccc(O)cc1
REMARK SMILES IDX 7 1 8 2 9 3 11 4 12 5 6 6 5 7 4 8 2 9 1 10 3 11 10 12
REMARK H PARENT 10 13
ROOT
ATOM      1  C   UNL     1      17.109 -14.614  22.530  1.00  0.00     0.012 A 
ATOM      2  C   UNL     1      16.921 -13.513  23.369  1.00  0.00     0.047 A 
ATOM      3  C   UNL     1      16.330 -12.359  22.869  1.00  0.00     0.115 A 
ATOM      4  C   UNL     1      15.926 -12.287  21.540  1.00  0.00     0.047 A 
ATOM      5  C   UNL     1      16.117 -13.391  20.704  1.00  0.00     0.012 A 
ATOM      6  C   UNL     1      16.698 -14.570  21.191  1.00  0.00    -0.025 A 
ENDROOT
BRANCH   6   7
ATOM      7  C   UNL     1      16.902 -15.690  20.262  1.00  0.00     0.010 C 
ATOM      8  C   UNL     1      16.665 -15.651  18.942  1.00  0.00     0.025 C 
BRANCH   8   9
ATOM      9  C   UNL     1      16.912 -16.855  18.030  1.00  0.00     0.064 C 
ATOM     10  O   UNL     1      18.106 -17.268  18.048  1.00  0.00    -0.545 OA
ATOM     11  O   UNL     1      15.918 -17.286  17.383  1.00  0.00    -0.545 OA
ENDBRANCH   8   9
ENDBRANCH   6   7
BRANCH   3  12
ATOM     12  O   UNL     1      16.163 -11.305  23.718  1.00  0.00    -0.508 OA
ATOM     13  H   UNL     1      16.903 -10.692  23.581  1.00  0.00     0.293 HD
ENDBRANCH   3  12
TORSDOF 3
ENDMDL
MODEL 7
REMARK VINA RESULT:    -6.602      1.093      5.705
REMARK INTER + INTRA:          -7.717
REMARK INTER:                  -7.575
REMARK INTRA:                  -0.142
REMARK UNBOUND:                -0.150
REMARK SMILES O=C([O-])/C=C/c1ccc(O)cc1
REMARK SMILES IDX 7 1 8 2 9 3 11 4 12 5 6 6 5 7 4 8 2 9 1 10 3 11 10 12
REMARK H PARENT 10 13
ROOT
ATOM      1  C   UNL     1      16.989 -13.784  23.108  1.00  0.00     0.012 A 
ATOM      2  C   UNL     1      17.087 -13.025  24.278  1.00  0.00     0.047 A 
ATOM      3  C   UNL     1      16.604 -11.723  24.296  1.00  0.00     0.115 A 
ATOM      4  C   UNL     1      16.028 -11.163  23.161  1.00  0.00     0.047 A 
ATOM      5  C   UNL     1      15.932 -11.925  21.992  1.00  0.00     0.012 A 
ATOM      6  C   UNL     1      16.399 -13.247  21.956  1.00  0.00    -0.025 A 
ENDROOT
BRANCH   6   7
ATOM      7  C   UNL     1      16.301 -13.993  20.694  1.00  0.00     0.010 C 
ATOM      8  C   UNL     1      16.758 -15.240  20.498  1.00  0.00     0.025 C 
BRANCH   8   9
ATOM      9  C   UNL     1      16.610 -15.963  19.157  1.00  0.00     0.064 C 
ATOM     10  O   UNL     1      16.016 -15.280  18.275  1.00  0.00    -0.545 OA
ATOM     11  O   UNL     1      17.088 -17.129  19.089  1.00  0.00    -0.545 OA
ENDBRANCH   8   9
ENDBRANCH   6   7
BRANCH   3  12
ATOM     12  O   UNL     1      16.718 -11.014  25.456  1.00  0.00    -0.508 OA
ATOM     13  H   UNL     1      15.842 -10.985  25.874  1.00  0.00     0.293 HD
ENDBRANCH   3  12
TORSDOF 3
ENDMDL
MODEL 8
REMARK VINA RESULT:    -6.567      1.271      5.758
REMARK INTER + INTRA:          -7.677
REMARK INTER:                  -7.540
REMARK INTRA:                  -0.137
REMARK UNBOUND:                -0.150
REMARK SMILES O=C([O-])/C=C/c1ccc(O)cc1
REMARK SMILES IDX 7 1 8 2 9 3 11 4 12 5 6 6 5 7 4 8 2 9 1 10 3 11 10 12
REMARK H PARENT 10 13
ROOT
ATOM      1  C   UNL     1      17.057 -13.031  24.353  1.00  0.00     0.012 A 
ATOM      2  C   UNL     1      17.023 -12.356  25.576  1.00  0.00     0.047 A 
ATOM      3  C   UNL     1      16.315 -11.166  25.686  1.00  0.00     0.115 A 
ATOM      4  C   UNL     1      15.641 -10.636  24.591  1.00  0.00     0.047 A 
ATOM      5  C   UNL     1      15.677 -11.315  23.369  1.00  0.00     0.012 A 
ATOM      6  C   UNL     1      16.374 -12.525  23.239  1.00  0.00    -0.025 A 
ENDROOT
BRANCH   6   7
ATOM      7  C   UNL     1      16.404 -13.181  21.925  1.00  0.00     0.010 C 
ATOM      8  C   UNL     1      16.714 -14.470  21.713  1.00  0.00     0.025 C 
BRANCH   8   9
ATOM      9  C   UNL     1      16.714 -15.092  20.315  1.00  0.00     0.064 C 
ATOM     10  O   UNL     1      17.525 -16.053  20.187  1.00  0.00    -0.545 OA
ATOM     11  O   UNL     1      15.923 -14.585  19.472  1.00  0.00    -0.545 OA
ENDBRANCH   8   9
ENDBRANCH   6   7
BRANCH   3  12
ATOM     12  O   UNL     1      16.305 -10.536  26.896  1.00  0.00    -0.508 OA
ATOM     13  H   UNL     1      17.197 -10.187  27.058  1.00  0.00     0.293 HD
ENDBRANCH   3  12
TORSDOF 3
ENDMDL
MODEL 9
REMARK VINA RESULT:    -6.558      1.752      2.465
REMARK INTER + INTRA:          -7.667
REMARK INTER:                  -7.517
REMARK INTRA:                  -0.150
REMARK UNBOUND:                -0.150
REMARK SMILES O=C([O-])/C=C/c1ccc(O)cc1
REMARK SMILES IDX 7 1 8 2 9 3 11 4 12 5 6 6 5 7 4 8 2 9 1 10 3 11 10 12
REMARK H PARENT 10 13
ROOT
ATOM      1  C   UNL     1      16.118 -16.716  20.587  1.00  0.00     0.012 A 
ATOM      2  C   UNL     1      16.030 -17.517  19.446  1.00  0.00     0.047 A 
ATOM      3  C   UNL     1      16.127 -16.936  18.188  1.00  0.00     0.115 A 
ATOM      4  C   UNL     1      16.308 -15.564  18.051  1.00  0.00     0.047 A 
ATOM      5  C   UNL     1      16.396 -14.766  19.196  1.00  0.00     0.012 A 
ATOM      6  C   UNL     1      16.315 -15.333  20.476  1.00  0.00    -0.025 A 
ENDROOT
BRANCH   6   7
ATOM      7  C   UNL     1      16.384 -14.446  21.645  1.00  0.00     0.010 C 
ATOM      8  C   UNL     1      16.296 -13.107  21.603  1.00  0.00     0.025 C 
BRANCH   8   9
ATOM      9  C   UNL     1      16.364 -12.244  22.865  1.00  0.00     0.064 C 
ATOM     10  O   UNL     1      15.660 -11.196  22.801  1.00  0.00    -0.545 OA
ATOM     11  O   UNL     1      17.097 -12.669  23.800  1.00  0.00    -0.545 OA
ENDBRANCH   8   9
ENDBRANCH   6   7
BRANCH   3  12
ATOM     12  O   UNL     1      16.036 -17.750  17.097  1.00  0.00    -0.508 OA
ATOM     13  H   UNL     1      16.034 -17.188  16.305  1.00  0.00     0.293 HD
ENDBRANCH   3  12
TORSDOF 3
ENDMDL
