MODEL 1
REMARK VINA RESULT:    -6.933      0.000      0.000
REMARK INTER + INTRA:          -8.097
REMARK INTER:                  -7.946
REMARK INTRA:                  -0.150
REMARK UNBOUND:                -0.150
REMARK SMILES O=C([O-])/C=C/c1ccc(O)cc1
REMARK SMILES IDX 7 1 8 2 9 3 11 4 12 5 6 6 5 7 4 8 2 9 1 10 3 11 10 12
REMARK H PARENT 10 13
ROOT
ATOM      1  C   UNL     1      17.137 -15.329  21.958  1.00  0.00     0.012 A 
ATOM      2  C   UNL     1      17.152 -15.928  20.696  1.00  0.00     0.047 A 
ATOM      3  C   UNL     1      16.698 -15.219  19.591  1.00  0.00     0.115 A 
ATOM      4  C   UNL     1      16.224 -13.918  19.728  1.00  0.00     0.047 A 
ATOM      5  C   UNL     1      16.211 -13.322  20.993  1.00  0.00     0.012 A 
ATOM      6  C   UNL     1      16.678 -14.015  22.119  1.00  0.00    -0.025 A 
ENDROOT
BRANCH   6   7
ATOM      7  C   UNL     1      16.614 -13.352  23.429  1.00  0.00     0.010 C 
ATOM      8  C   UNL     1      15.898 -12.250  23.702  1.00  0.00     0.025 C 
BRANCH   8   9
ATOM      9  C   UNL     1      15.869 -11.620  25.096  1.00  0.00     0.064 C 
ATOM     10  O   UNL     1      15.801 -12.464  26.034  1.00  0.00    -0.545 OA
ATOM     11  O   UNL     1      15.914 -10.360  25.146  1.00  0.00    -0.545 OA
ENDBRANCH   8   9
ENDBRANCH   6   7
BRANCH   3  12
ATOM     12  O   UNL     1      16.728 -15.837  18.376  1.00  0.00    -0.508 OA
ATOM     13  H   UNL     1      16.554 -16.782  18.517  1.00  0.00     0.293 HD
ENDBRANCH   3  12
TORSDOF 3
ENDMDL
MODEL 2
REMARK VINA RESULT:    -6.912      0.166      1.403
REMARK INTER + INTRA:          -8.073
REMARK INTER:                  -7.937
REMARK INTRA:                  -0.136
REMARK UNBOUND:                -0.150
REMARK SMILES O=C([O-])/C=C/c1ccc(O)cc1
REMARK SMILES IDX 7 1 8 2 9 3 11 4 12 5 6 6 5 7 4 8 2 9 1 10 3 11 10 12
REMARK H PARENT 10 13
ROOT
ATOM      1  C   UNL     1      16.220 -13.225  20.988  1.00  0.00     0.012 A 
ATOM      2  C   UNL     1      16.241 -13.838  19.732  1.00  0.00     0.047 A 
ATOM      3  C   UNL     1      16.693 -15.146  19.611  1.00  0.00     0.115 A 
ATOM      4  C   UNL     1      17.129 -15.852  20.728  1.00  0.00     0.047 A 
ATOM      5  C   UNL     1      17.106 -15.235  21.982  1.00  0.00     0.012 A 
ATOM      6  C   UNL     1      16.640 -13.921  22.129  1.00  0.00    -0.025 A 
ENDROOT
BRANCH   6   7
ATOM      7  C   UNL     1      16.665 -13.310  23.465  1.00  0.00     0.010 C 
ATOM      8  C   UNL     1      15.880 -12.298  23.865  1.00  0.00     0.025 C 
BRANCH   8   9
ATOM      9  C   UNL     1      15.952 -11.718  25.280  1.00  0.00     0.064 C 
ATOM     10  O   UNL     1      15.762 -12.575  26.189  1.00  0.00    -0.545 OA
ATOM     11  O   UNL     1      16.188 -10.482  25.371  1.00  0.00    -0.545 OA
ENDBRANCH   8   9
ENDBRANCH   6   7
BRANCH   3  12
ATOM     12  O   UNL     1      16.699 -15.710  18.370  1.00  0.00    -0.508 OA
ATOM     13  H   UNL     1      17.468 -16.301  18.315  1.00  0.00     0.293 HD
ENDBRANCH   3  12
TORSDOF 3
ENDMDL
MODEL 3
REMARK VINA RESULT:    -6.907      1.321      5.771
REMARK INTER + INTRA:          -8.067
REMARK INTER:                  -7.931
REMARK INTRA:                  -0.135
REMARK UNBOUND:                -0.150
REMARK SMILES O=C([O-])/C=C/c1ccc(O)cc1
REMARK SMILES IDX 7 1 8 2 9 3 11 4 12 5 6 6 5 7 4 8 2 9 1 10 3 11 10 12
REMARK H PARENT 10 13
ROOT
ATOM      1  C   UNL     1      16.927 -14.524  22.305  1.00  0.00     0.012 A 
ATOM      2  C   UNL     1      17.237 -13.777  23.445  1.00  0.00     0.047 A 
ATOM      3  C   UNL     1      16.927 -12.423  23.486  1.00  0.00     0.115 A 
ATOM      4  C   UNL     1      16.314 -11.802  22.402  1.00  0.00     0.047 A 
ATOM      5  C   UNL     1      16.007 -12.554  21.264  1.00  0.00     0.012 A 
ATOM      6  C   UNL     1      16.297 -13.924  21.207  1.00  0.00    -0.025 A 
ENDROOT
BRANCH   6   7
ATOM      7  C   UNL     1      15.980 -14.660  19.976  1.00  0.00     0.010 C 
ATOM      8  C   UNL     1      16.739 -15.627  19.437  1.00  0.00     0.025 C 
BRANCH   8   9
ATOM      9  C   UNL     1      16.339 -16.362  18.156  1.00  0.00     0.064 C 
ATOM     10  O   UNL     1      16.414 -17.620  18.248  1.00  0.00    -0.545 OA
ATOM     11  O   UNL     1      15.989 -15.644  17.179  1.00  0.00    -0.545 OA
ENDBRANCH   8   9
ENDBRANCH   6   7
BRANCH   3  12
ATOM     12  O   UNL     1      17.244 -11.727  24.614  1.00  0.00    -0.508 OA
ATOM     13  H   UNL     1      16.519 -11.842  25.250  1.00  0.00     0.293 HD
ENDBRANCH   3  12
TORSDOF 3
ENDMDL
MODEL 4
REMARK VINA RESULT:    -6.884      1.295      5.920
REMARK INTER + INTRA:          -8.040
REMARK INTER:                  -7.895
REMARK INTRA:                  -0.145
REMARK UNBOUND:                -0.150
REMARK SMILES O=C([O-])/C=C/c1ccc(O)cc1
REMARK SMILES IDX 7 1 8 2 9 3 11 4 12 5 6 6 5 7 4 8 2 9 1 10 3 11 10 12
REMARK H PARENT 10 13
ROOT
ATOM      1  C   UNL     1      16.022 -12.462  21.282  1.00  0.00     0.012 A 
ATOM      2  C   UNL     1      16.335 -11.769  22.454  1.00  0.00     0.047 A 
ATOM      3  C   UNL     1      16.931 -12.442  23.514  1.00  0.00     0.115 A 
ATOM      4  C   UNL     1      17.215 -13.801  23.422  1.00  0.00     0.047 A 
ATOM      5  C   UNL     1      16.899 -14.490  22.247  1.00  0.00     0.012 A 
ATOM      6  C   UNL     1      16.312 -13.827  21.160  1.00  0.00    -0.025 A 
ENDROOT
BRANCH   6   7
ATOM      7  C   UNL     1      15.974 -14.605  19.960  1.00  0.00     0.010 C 
ATOM      8  C   UNL     1      16.647 -15.681  19.523  1.00  0.00     0.025 C 
BRANCH   8   9
ATOM      9  C   UNL     1      16.231 -16.452  18.269  1.00  0.00     0.064 C 
ATOM     10  O   UNL     1      16.189 -17.704  18.434  1.00  0.00    -0.545 OA
ATOM     11  O   UNL     1      15.983 -15.764  17.240  1.00  0.00    -0.545 OA
ENDBRANCH   8   9
ENDBRANCH   6   7
BRANCH   3  12
ATOM     12  O   UNL     1      17.222 -11.733  24.641  1.00  0.00    -0.508 OA
ATOM     13  H   UNL     1      16.545 -11.044  24.743  1.00  0.00     0.293 HD
ENDBRANCH   3  12
TORSDOF 3
ENDMDL
MODEL 5
REMARK VINA RESULT:    -6.835      1.546      5.542
REMARK INTER + INTRA:          -7.984
REMARK INTER:                  -7.848
REMARK INTRA:                  -0.137
REMARK UNBOUND:                -0.150
REMARK SMILES O=C([O-])/C=C/c1ccc(O)cc1
REMARK SMILES IDX 7 1 8 2 9 3 11 4 12 5 6 6 5 7 4 8 2 9 1 10 3 11 10 12
REMARK H PARENT 10 13
ROOT
ATOM      1  C   UNL     1      17.089 -13.722  23.437  1.00  0.00     0.012 A 
ATOM      2  C   UNL     1      16.833 -12.594  24.222  1.00  0.00     0.047 A 
ATOM      3  C   UNL     1      16.166 -11.508  23.670  1.00  0.00     0.115 A 
ATOM      4  C   UNL     1      15.753 -11.528  22.341  1.00  0.00     0.047 A 
ATOM      5  C   UNL     1      16.011 -12.659  21.560  1.00  0.00     0.012 A 
ATOM      6  C   UNL     1      16.670 -13.772  22.101  1.00  0.00    -0.025 A 
ENDROOT
BRANCH   6   7
ATOM      7  C   UNL     1      16.942 -14.922  21.227  1.00  0.00     0.010 C 
ATOM      8  C   UNL     1      17.513 -16.071  21.620  1.00  0.00     0.025 C 
BRANCH   8   9
ATOM      9  C   UNL     1      17.756 -17.234  20.656  1.00  0.00     0.064 C 
ATOM     10  O   UNL     1      16.702 -17.850  20.328  1.00  0.00    -0.545 OA
ATOM     11  O   UNL     1      18.951 -17.439  20.309  1.00  0.00    -0.545 OA
ENDBRANCH   8   9
ENDBRANCH   6   7
BRANCH   3  12
ATOM     12  O   UNL     1      15.935 -10.426  24.466  1.00  0.00    -0.508 OA
ATOM     13  H   UNL     1      15.973 -10.722  25.390  1.00  0.00     0.293 HD
ENDBRANCH   3  12
TORSDOF 3
ENDMDL
MODEL 6
REMARK VINA RESULT:    -6.816      1.396      2.312
REMARK INTER + INTRA:          -7.963
REMARK INTER:                  -7.815
REMARK INTRA:                  -0.148
REMARK UNBOUND:                -0.150
REMARK SMILES O=C([O-])/C=C/c1ccc(O)cc1
REMARK SMILES IDX 7 1 8 2 9 3 11 4 12 5 6 6 5 7 4 8 2 9 1 10 3 11 10 12
REMARK H PARENT 10 13
ROOT
ATOM      1  C   UNL     1      15.968 -12.360  21.575  1.00  0.00     0.012 A 
ATOM      2  C   UNL     1      16.065 -13.443  20.698  1.00  0.00     0.047 A 
ATOM      3  C   UNL     1      16.652 -14.626  21.128  1.00  0.00     0.115 A 
ATOM      4  C   UNL     1      17.149 -14.744  22.422  1.00  0.00     0.047 A 
ATOM      5  C   UNL     1      17.050 -13.657  23.296  1.00  0.00     0.012 A 
ATOM      6  C   UNL     1      16.448 -12.458  22.888  1.00  0.00    -0.025 A 
ENDROOT
BRANCH   6   7
ATOM      7  C   UNL     1      16.397 -11.338  23.837  1.00  0.00     0.010 C 
ATOM      8  C   UNL     1      16.624 -11.433  25.156  1.00  0.00     0.025 C 
BRANCH   8   9
ATOM      9  C   UNL     1      16.566 -10.218  26.085  1.00  0.00     0.064 C 
ATOM     10  O   UNL     1      17.603 -10.070  26.791  1.00  0.00    -0.545 OA
ATOM     11  O   UNL     1      15.514  -9.523  26.039  1.00  0.00    -0.545 OA
ENDBRANCH   8   9
ENDBRANCH   6   7
BRANCH   3  12
ATOM     12  O   UNL     1      16.728 -15.662  20.244  1.00  0.00    -0.508 OA
ATOM     13  H   UNL     1      17.132 -16.417  20.702  1.00  0.00     0.293 HD
ENDBRANCH   3  12
TORSDOF 3
ENDMDL
MODEL 7
REMARK VINA RESULT:    -6.575      1.390      6.017
REMARK INTER + INTRA:          -7.686
REMARK INTER:                  -7.534
REMARK INTRA:                  -0.152
REMARK UNBOUND:                -0.150
REMARK SMILES O=C([O-])/C=C/c1ccc(O)cc1
REMARK SMILES IDX 7 1 8 2 9 3 11 4 12 5 6 6 5 7 4 8 2 9 1 10 3 11 10 12
REMARK H PARENT 10 13
ROOT
ATOM      1  C   UNL     1      15.645 -11.128  23.641  1.00  0.00     0.012 A 
ATOM      2  C   UNL     1      15.620 -10.542  24.910  1.00  0.00     0.047 A 
ATOM      3  C   UNL     1      16.252 -11.175  25.972  1.00  0.00     0.115 A 
ATOM      4  C   UNL     1      16.906 -12.390  25.789  1.00  0.00     0.047 A 
ATOM      5  C   UNL     1      16.927 -12.972  24.518  1.00  0.00     0.012 A 
ATOM      6  C   UNL     1      16.309 -12.343  23.428  1.00  0.00    -0.025 A 
ENDROOT
BRANCH   6   7
ATOM      7  C   UNL     1      16.336 -13.013  22.121  1.00  0.00     0.010 C 
ATOM      8  C   UNL     1      16.717 -14.282  21.912  1.00  0.00     0.025 C 
BRANCH   8   9
ATOM      9  C   UNL     1      16.709 -14.921  20.521  1.00  0.00     0.064 C 
ATOM     10  O   UNL     1      15.925 -14.354  19.708  1.00  0.00    -0.545 OA
ATOM     11  O   UNL     1      17.468 -15.914  20.352  1.00  0.00    -0.545 OA
ENDBRANCH   8   9
ENDBRANCH   6   7
BRANCH   3  12
ATOM     12  O   UNL     1      16.207 -10.573  27.195  1.00  0.00    -0.508 OA
ATOM     13  H   UNL     1      15.521  -9.887  27.165  1.00  0.00     0.293 HD
ENDBRANCH   3  12
TORSDOF 3
ENDMDL
MODEL 8
REMARK VINA RESULT:    -6.534      1.723      6.039
REMARK INTER + INTRA:          -7.640
REMARK INTER:                  -7.489
REMARK INTRA:                  -0.151
REMARK UNBOUND:                -0.150
REMARK SMILES O=C([O-])/C=C/c1ccc(O)cc1
REMARK SMILES IDX 7 1 8 2 9 3 11 4 12 5 6 6 5 7 4 8 2 9 1 10 3 11 10 12
REMARK H PARENT 10 13
ROOT
ATOM      1  C   UNL     1      17.098 -14.900  22.321  1.00  0.00     0.012 A 
ATOM      2  C   UNL     1      16.938 -13.711  23.038  1.00  0.00     0.047 A 
ATOM      3  C   UNL     1      16.372 -12.604  22.417  1.00  0.00     0.115 A 
ATOM      4  C   UNL     1      15.965 -12.666  21.088  1.00  0.00     0.047 A 
ATOM      5  C   UNL     1      16.127 -13.858  20.375  1.00  0.00     0.012 A 
ATOM      6  C   UNL     1      16.683 -14.991  20.986  1.00  0.00    -0.025 A 
ENDROOT
BRANCH   6   7
ATOM      7  C   UNL     1      16.857 -16.209  20.184  1.00  0.00     0.010 C 
ATOM      8  C   UNL     1      16.503 -16.342  18.896  1.00  0.00     0.025 C 
BRANCH   8   9
ATOM      9  C   UNL     1      16.727 -17.639  18.116  1.00  0.00     0.064 C 
ATOM     10  O   UNL     1      15.931 -17.791  17.146  1.00  0.00    -0.545 OA
ATOM     11  O   UNL     1      17.657 -18.388  18.522  1.00  0.00    -0.545 OA
ENDBRANCH   8   9
ENDBRANCH   6   7
BRANCH   3  12
ATOM     12  O   UNL     1      16.232 -11.461  23.148  1.00  0.00    -0.508 OA
ATOM     13  H   UNL     1      15.460 -11.570  23.727  1.00  0.00     0.293 HD
ENDBRANCH   3  12
TORSDOF 3
ENDMDL
MODEL 9
REMARK VINA RESULT:    -6.522      1.643      2.218
REMARK INTER + INTRA:          -7.626
REMARK INTER:                  -7.473
REMARK INTRA:                  -0.152
REMARK UNBOUND:                -0.150
REMARK SMILES O=C([O-])/C=C/c1ccc(O)cc1
REMARK SMILES IDX 7 1 8 2 9 3 11 4 12 5 6 6 5 7 4 8 2 9 1 10 3 11 10 12
REMARK H PARENT 10 13
ROOT
ATOM      1  C   UNL     1      16.536 -16.833  20.556  1.00  0.00     0.012 A 
ATOM      2  C   UNL     1      16.405 -17.566  19.373  1.00  0.00     0.047 A 
ATOM      3  C   UNL     1      16.249 -16.899  18.165  1.00  0.00     0.115 A 
ATOM      4  C   UNL     1      16.218 -15.509  18.119  1.00  0.00     0.047 A 
ATOM      5  C   UNL     1      16.350 -14.780  19.306  1.00  0.00     0.012 A 
ATOM      6  C   UNL     1      16.523 -15.433  20.535  1.00  0.00    -0.025 A 
ENDROOT
BRANCH   6   7
ATOM      7  C   UNL     1      16.627 -14.620  21.754  1.00  0.00     0.010 C 
ATOM      8  C   UNL     1      16.252 -13.335  21.859  1.00  0.00     0.025 C 
BRANCH   8   9
ATOM      9  C   UNL     1      16.378 -12.552  23.168  1.00  0.00     0.064 C 
ATOM     10  O   UNL     1      16.842 -13.234  24.125  1.00  0.00    -0.545 OA
ATOM     11  O   UNL     1      16.014 -11.344  23.139  1.00  0.00    -0.545 OA
ENDBRANCH   8   9
ENDBRANCH   6   7
BRANCH   3  12
ATOM     12  O   UNL     1      16.124 -17.647  17.032  1.00  0.00    -0.508 OA
ATOM     13  H   UNL     1      15.198 -17.601  16.745  1.00  0.00     0.293 HD
ENDBRANCH   3  12
TORSDOF 3
ENDMDL
