MODEL 1
REMARK VINA RESULT:    -7.297      0.000      0.000
REMARK INTER + INTRA:          -8.702
REMARK INTER:                  -8.577
REMARK INTRA:                  -0.125
REMARK UNBOUND:                -0.125
REMARK SMILES O=C([O-])/C=C/c1ccc(O)c(O)c1
REMARK SMILES IDX 7 1 8 2 9 3 11 4 13 5 6 6 5 7 4 8 2 9 1 10 3 11 10 12 12 14
REMARK H PARENT 10 13 12 15
ROOT
ATOM      1  C   UNL     1      15.946 -12.306  21.611  1.00  0.00     0.012 A 
ATOM      2  C   UNL     1      15.995 -13.291  20.619  1.00  0.00     0.051 A 
ATOM      3  C   UNL     1      16.576 -14.517  20.917  1.00  0.00     0.157 A 
ATOM      4  C   UNL     1      17.106 -14.757  22.182  1.00  0.00     0.157 A 
ATOM      5  C   UNL     1      17.059 -13.781  23.171  1.00  0.00     0.058 A 
ATOM      6  C   UNL     1      16.465 -12.542  22.897  1.00  0.00    -0.022 A 
ENDROOT
BRANCH   6   7
ATOM      7  C   UNL     1      16.406 -11.453  23.881  1.00  0.00     0.010 C 
ATOM      8  C   UNL     1      16.859 -11.524  25.143  1.00  0.00     0.025 C 
BRANCH   8   9
ATOM      9  C   UNL     1      16.738 -10.351  26.117  1.00  0.00     0.064 C 
ATOM     10  O   UNL     1      17.638 -10.256  26.998  1.00  0.00    -0.545 OA
ATOM     11  O   UNL     1      15.734  -9.615  25.905  1.00  0.00    -0.545 OA
ENDBRANCH   8   9
ENDBRANCH   6   7
BRANCH   3  12
ATOM     12  O   UNL     1      16.654 -15.521  19.989  1.00  0.00    -0.504 OA
ATOM     13  H   UNL     1      16.441 -16.353  20.445  1.00  0.00     0.293 HD
ENDBRANCH   3  12
BRANCH   4  14
ATOM     14  O   UNL     1      17.685 -15.966  22.454  1.00  0.00    -0.504 OA
ATOM     15  H   UNL     1      16.936 -16.535  22.712  1.00  0.00     0.293 HD
ENDBRANCH   4  14
TORSDOF 4
ENDMDL
MODEL 2
REMARK VINA RESULT:    -7.275      1.651      5.857
REMARK INTER + INTRA:          -8.676
REMARK INTER:                  -8.552
REMARK INTRA:                  -0.124
REMARK UNBOUND:                -0.125
REMARK SMILES O=C([O-])/C=C/c1ccc(O)c(O)c1
REMARK SMILES IDX 7 1 8 2 9 3 11 4 13 5 6 6 5 7 4 8 2 9 1 10 3 11 10 12 12 14
REMARK H PARENT 10 13 12 15
ROOT
ATOM      1  C   UNL     1      15.890 -11.951  22.018  1.00  0.00     0.012 A 
ATOM      2  C   UNL     1      16.092 -11.210  23.187  1.00  0.00     0.051 A 
ATOM      3  C   UNL     1      16.773 -11.796  24.246  1.00  0.00     0.157 A 
ATOM      4  C   UNL     1      17.243 -13.103  24.144  1.00  0.00     0.157 A 
ATOM      5  C   UNL     1      17.045 -13.843  22.984  1.00  0.00     0.058 A 
ATOM      6  C   UNL     1      16.372 -13.266  21.899  1.00  0.00    -0.022 A 
ENDROOT
BRANCH   6   7
ATOM      7  C   UNL     1      16.100 -13.996  20.653  1.00  0.00     0.010 C 
ATOM      8  C   UNL     1      16.599 -15.202  20.337  1.00  0.00     0.025 C 
BRANCH   8   9
ATOM      9  C   UNL     1      16.287 -15.888  19.006  1.00  0.00     0.064 C 
ATOM     10  O   UNL     1      15.923 -15.138  18.057  1.00  0.00    -0.545 OA
ATOM     11  O   UNL     1      16.441 -17.142  19.031  1.00  0.00    -0.545 OA
ENDBRANCH   8   9
ENDBRANCH   6   7
BRANCH   3  12
ATOM     12  O   UNL     1      17.003 -11.123  25.416  1.00  0.00    -0.504 OA
ATOM     13  H   UNL     1      17.964 -11.115  25.562  1.00  0.00     0.293 HD
ENDBRANCH   3  12
BRANCH   4  14
ATOM     14  O   UNL     1      17.902 -13.668  25.201  1.00  0.00    -0.504 OA
ATOM     15  H   UNL     1      18.716 -13.136  25.284  1.00  0.00     0.293 HD
ENDBRANCH   4  14
TORSDOF 4
ENDMDL
MODEL 3
REMARK VINA RESULT:    -7.093      2.417      6.549
REMARK INTER + INTRA:          -8.461
REMARK INTER:                  -8.320
REMARK INTRA:                  -0.141
REMARK UNBOUND:                -0.125
REMARK SMILES O=C([O-])/C=C/c1ccc(O)c(O)c1
REMARK SMILES IDX 7 1 8 2 9 3 11 4 13 5 6 6 5 7 4 8 2 9 1 10 3 11 10 12 12 14
REMARK H PARENT 10 13 12 15
ROOT
ATOM      1  C   UNL     1      15.985 -13.799  20.572  1.00  0.00     0.012 A 
ATOM      2  C   UNL     1      15.975 -12.603  21.297  1.00  0.00     0.051 A 
ATOM      3  C   UNL     1      16.541 -12.581  22.565  1.00  0.00     0.157 A 
ATOM      4  C   UNL     1      17.104 -13.734  23.106  1.00  0.00     0.157 A 
ATOM      5  C   UNL     1      17.116 -14.925  22.389  1.00  0.00     0.058 A 
ATOM      6  C   UNL     1      16.563 -14.966  21.103  1.00  0.00    -0.022 A 
ENDROOT
BRANCH   6   7
ATOM      7  C   UNL     1      16.513 -16.194  20.298  1.00  0.00     0.010 C 
ATOM      8  C   UNL     1      16.756 -16.267  18.979  1.00  0.00     0.025 C 
BRANCH   8   9
ATOM      9  C   UNL     1      16.659 -17.583  18.206  1.00  0.00     0.064 C 
ATOM     10  O   UNL     1      15.977 -17.563  17.143  1.00  0.00    -0.545 OA
ATOM     11  O   UNL     1      17.292 -18.536  18.742  1.00  0.00    -0.545 OA
ENDBRANCH   8   9
ENDBRANCH   6   7
BRANCH   3  12
ATOM     12  O   UNL     1      16.563 -11.441  23.324  1.00  0.00    -0.504 OA
ATOM     13  H   UNL     1      17.404 -10.989  23.144  1.00  0.00     0.293 HD
ENDBRANCH   3  12
BRANCH   4  14
ATOM     14  O   UNL     1      17.646 -13.696  24.361  1.00  0.00    -0.504 OA
ATOM     15  H   UNL     1      17.682 -12.745  24.575  1.00  0.00     0.293 HD
ENDBRANCH   4  14
TORSDOF 4
ENDMDL
MODEL 4
REMARK VINA RESULT:    -6.994      1.121      1.422
REMARK INTER + INTRA:          -8.346
REMARK INTER:                  -8.201
REMARK INTRA:                  -0.145
REMARK UNBOUND:                -0.125
REMARK SMILES O=C([O-])/C=C/c1ccc(O)c(O)c1
REMARK SMILES IDX 7 1 8 2 9 3 11 4 13 5 6 6 5 7 4 8 2 9 1 10 3 11 10 12 12 14
REMARK H PARENT 10 13 12 15
ROOT
ATOM      1  C   UNL     1      16.089 -13.312  21.189  1.00  0.00     0.012 A 
ATOM      2  C   UNL     1      15.872 -14.109  20.061  1.00  0.00     0.051 A 
ATOM      3  C   UNL     1      16.324 -15.423  20.068  1.00  0.00     0.157 A 
ATOM      4  C   UNL     1      16.986 -15.934  21.182  1.00  0.00     0.157 A 
ATOM      5  C   UNL     1      17.203 -15.145  22.307  1.00  0.00     0.058 A 
ATOM      6  C   UNL     1      16.744 -13.822  22.325  1.00  0.00    -0.022 A 
ENDROOT
BRANCH   6   7
ATOM      7  C   UNL     1      16.962 -12.920  23.464  1.00  0.00     0.010 C 
ATOM      8  C   UNL     1      16.108 -11.969  23.874  1.00  0.00     0.025 C 
BRANCH   8   9
ATOM      9  C   UNL     1      16.420 -11.051  25.058  1.00  0.00     0.064 C 
ATOM     10  O   UNL     1      17.390 -11.388  25.791  1.00  0.00    -0.545 OA
ATOM     11  O   UNL     1      15.649 -10.054  25.145  1.00  0.00    -0.545 OA
ENDBRANCH   8   9
ENDBRANCH   6   7
BRANCH   3  12
ATOM     12  O   UNL     1      16.143 -16.253  18.995  1.00  0.00    -0.504 OA
ATOM     13  H   UNL     1      15.213 -16.539  19.003  1.00  0.00     0.293 HD
ENDBRANCH   3  12
BRANCH   4  14
ATOM     14  O   UNL     1      17.433 -17.226  21.167  1.00  0.00    -0.504 OA
ATOM     15  H   UNL     1      18.117 -17.232  20.472  1.00  0.00     0.293 HD
ENDBRANCH   4  14
TORSDOF 4
ENDMDL
MODEL 5
REMARK VINA RESULT:    -6.980      2.313      3.548
REMARK INTER + INTRA:          -8.329
REMARK INTER:                  -8.182
REMARK INTRA:                  -0.147
REMARK UNBOUND:                -0.125
REMARK SMILES O=C([O-])/C=C/c1ccc(O)c(O)c1
REMARK SMILES IDX 7 1 8 2 9 3 11 4 13 5 6 6 5 7 4 8 2 9 1 10 3 11 10 12 12 14
REMARK H PARENT 10 13 12 15
ROOT
ATOM      1  C   UNL     1      17.077 -15.583  21.318  1.00  0.00     0.012 A 
ATOM      2  C   UNL     1      17.477 -16.707  20.588  1.00  0.00     0.051 A 
ATOM      3  C   UNL     1      17.246 -16.737  19.219  1.00  0.00     0.157 A 
ATOM      4  C   UNL     1      16.620 -15.665  18.587  1.00  0.00     0.157 A 
ATOM      5  C   UNL     1      16.222 -14.546  19.308  1.00  0.00     0.058 A 
ATOM      6  C   UNL     1      16.457 -14.489  20.688  1.00  0.00    -0.022 A 
ENDROOT
BRANCH   6   7
ATOM      7  C   UNL     1      16.038 -13.354  21.520  1.00  0.00     0.010 C 
ATOM      8  C   UNL     1      16.426 -13.136  22.786  1.00  0.00     0.025 C 
BRANCH   8   9
ATOM      9  C   UNL     1      15.924 -11.940  23.597  1.00  0.00     0.064 C 
ATOM     10  O   UNL     1      16.218 -10.795  23.153  1.00  0.00    -0.545 OA
ATOM     11  O   UNL     1      15.265 -12.263  24.626  1.00  0.00    -0.545 OA
ENDBRANCH   8   9
ENDBRANCH   6   7
BRANCH   3  12
ATOM     12  O   UNL     1      17.614 -17.808  18.450  1.00  0.00    -0.504 OA
ATOM     13  H   UNL     1      17.935 -17.459  17.601  1.00  0.00     0.293 HD
ENDBRANCH   3  12
BRANCH   4  14
ATOM     14  O   UNL     1      16.391 -15.717  17.239  1.00  0.00    -0.504 OA
ATOM     15  H   UNL     1      16.833 -14.919  16.892  1.00  0.00     0.293 HD
ENDBRANCH   4  14
TORSDOF 4
ENDMDL
MODEL 6
REMARK VINA RESULT:    -6.980      2.662      4.169
REMARK INTER + INTRA:          -8.329
REMARK INTER:                  -8.203
REMARK INTRA:                  -0.126
REMARK UNBOUND:                -0.125
REMARK SMILES O=C([O-])/C=C/c1ccc(O)c(O)c1
REMARK SMILES IDX 7 1 8 2 9 3 11 4 13 5 6 6 5 7 4 8 2 9 1 10 3 11 10 12 12 14
REMARK H PARENT 10 13 12 15
ROOT
ATOM      1  C   UNL     1      16.153 -16.878  21.060  1.00  0.00     0.012 A 
ATOM      2  C   UNL     1      15.907 -17.825  20.060  1.00  0.00     0.051 A 
ATOM      3  C   UNL     1      15.980 -17.433  18.730  1.00  0.00     0.157 A 
ATOM      4  C   UNL     1      16.290 -16.116  18.400  1.00  0.00     0.157 A 
ATOM      5  C   UNL     1      16.536 -15.172  19.390  1.00  0.00     0.058 A 
ATOM      6  C   UNL     1      16.480 -15.549  20.738  1.00  0.00    -0.022 A 
ENDROOT
BRANCH   6   7
ATOM      7  C   UNL     1      16.699 -14.601  21.839  1.00  0.00     0.010 C 
ATOM      8  C   UNL     1      16.297 -13.320  21.848  1.00  0.00     0.025 C 
BRANCH   8   9
ATOM      9  C   UNL     1      16.584 -12.386  23.026  1.00  0.00     0.064 C 
ATOM     10  O   UNL     1      16.287 -11.169  22.866  1.00  0.00    -0.545 OA
ATOM     11  O   UNL     1      17.091 -12.969  24.026  1.00  0.00    -0.545 OA
ENDBRANCH   8   9
ENDBRANCH   6   7
BRANCH   3  12
ATOM     12  O   UNL     1      15.750 -18.313  17.706  1.00  0.00    -0.504 OA
ATOM     13  H   UNL     1      16.097 -17.908  16.893  1.00  0.00     0.293 HD
ENDBRANCH   3  12
BRANCH   4  14
ATOM     14  O   UNL     1      16.347 -15.746  17.085  1.00  0.00    -0.504 OA
ATOM     15  H   UNL     1      15.712 -15.007  17.018  1.00  0.00     0.293 HD
ENDBRANCH   4  14
TORSDOF 4
ENDMDL
MODEL 7
REMARK VINA RESULT:    -6.945      2.333      6.482
REMARK INTER + INTRA:          -8.288
REMARK INTER:                  -8.136
REMARK INTRA:                  -0.152
REMARK UNBOUND:                -0.125
REMARK SMILES O=C([O-])/C=C/c1ccc(O)c(O)c1
REMARK SMILES IDX 7 1 8 2 9 3 11 4 13 5 6 6 5 7 4 8 2 9 1 10 3 11 10 12 12 14
REMARK H PARENT 10 13 12 15
ROOT
ATOM      1  C   UNL     1      16.998 -14.759  21.988  1.00  0.00     0.012 A 
ATOM      2  C   UNL     1      17.338 -14.206  23.227  1.00  0.00     0.051 A 
ATOM      3  C   UNL     1      17.034 -12.875  23.476  1.00  0.00     0.157 A 
ATOM      4  C   UNL     1      16.405 -12.102  22.502  1.00  0.00     0.157 A 
ATOM      5  C   UNL     1      16.065 -12.647  21.269  1.00  0.00     0.058 A 
ATOM      6  C   UNL     1      16.350 -13.992  21.003  1.00  0.00    -0.022 A 
ENDROOT
BRANCH   6   7
ATOM      7  C   UNL     1      16.048 -14.629  19.714  1.00  0.00     0.010 C 
ATOM      8  C   UNL     1      16.390 -15.881  19.369  1.00  0.00     0.025 C 
BRANCH   8   9
ATOM      9  C   UNL     1      16.060 -16.465  17.994  1.00  0.00     0.064 C 
ATOM     10  O   UNL     1      15.873 -17.712  17.942  1.00  0.00    -0.545 OA
ATOM     11  O   UNL     1      16.013 -15.602  17.072  1.00  0.00    -0.545 OA
ENDBRANCH   8   9
ENDBRANCH   6   7
BRANCH   3  12
ATOM     12  O   UNL     1      17.340 -12.276  24.668  1.00  0.00    -0.504 OA
ATOM     13  H   UNL     1      17.877 -12.905  25.179  1.00  0.00     0.293 HD
ENDBRANCH   3  12
BRANCH   4  14
ATOM     14  O   UNL     1      16.123 -10.789  22.760  1.00  0.00    -0.504 OA
ATOM     15  H   UNL     1      15.166 -10.713  22.588  1.00  0.00     0.293 HD
ENDBRANCH   4  14
TORSDOF 4
ENDMDL
MODEL 8
REMARK VINA RESULT:    -6.921      1.326      5.613
REMARK INTER + INTRA:          -8.259
REMARK INTER:                  -8.135
REMARK INTRA:                  -0.125
REMARK UNBOUND:                -0.125
REMARK SMILES O=C([O-])/C=C/c1ccc(O)c(O)c1
REMARK SMILES IDX 7 1 8 2 9 3 11 4 13 5 6 6 5 7 4 8 2 9 1 10 3 11 10 12 12 14
REMARK H PARENT 10 13 12 15
ROOT
ATOM      1  C   UNL     1      15.831 -11.207  23.124  1.00  0.00     0.012 A 
ATOM      2  C   UNL     1      15.720 -10.530  24.343  1.00  0.00     0.051 A 
ATOM      3  C   UNL     1      16.048 -11.198  25.515  1.00  0.00     0.157 A 
ATOM      4  C   UNL     1      16.475 -12.523  25.475  1.00  0.00     0.157 A 
ATOM      5  C   UNL     1      16.588 -13.200  24.265  1.00  0.00     0.058 A 
ATOM      6  C   UNL     1      16.275 -12.540  23.070  1.00  0.00    -0.022 A 
ENDROOT
BRANCH   6   7
ATOM      7  C   UNL     1      16.341 -13.198  21.758  1.00  0.00     0.010 C 
ATOM      8  C   UNL     1      16.701 -14.475  21.549  1.00  0.00     0.025 C 
BRANCH   8   9
ATOM      9  C   UNL     1      16.769 -15.082  20.147  1.00  0.00     0.064 C 
ATOM     10  O   UNL     1      17.550 -16.062  19.994  1.00  0.00    -0.545 OA
ATOM     11  O   UNL     1      16.015 -14.511  19.308  1.00  0.00    -0.545 OA
ENDBRANCH   8   9
ENDBRANCH   6   7
BRANCH   3  12
ATOM     12  O   UNL     1      15.960 -10.591  26.739  1.00  0.00    -0.504 OA
ATOM     13  H   UNL     1      15.725  -9.661  26.585  1.00  0.00     0.293 HD
ENDBRANCH   3  12
BRANCH   4  14
ATOM     14  O   UNL     1      16.783 -13.169  26.640  1.00  0.00    -0.504 OA
ATOM     15  H   UNL     1      15.934 -13.552  26.931  1.00  0.00     0.293 HD
ENDBRANCH   4  14
TORSDOF 4
ENDMDL
MODEL 9
REMARK VINA RESULT:    -6.493      1.135      5.935
REMARK INTER + INTRA:          -7.756
REMARK INTER:                  -7.613
REMARK INTRA:                  -0.143
REMARK UNBOUND:                -0.125
REMARK SMILES O=C([O-])/C=C/c1ccc(O)c(O)c1
REMARK SMILES IDX 7 1 8 2 9 3 11 4 13 5 6 6 5 7 4 8 2 9 1 10 3 11 10 12 12 14
REMARK H PARENT 10 13 12 15
ROOT
ATOM      1  C   UNL     1      17.463 -13.047  24.705  1.00  0.00     0.012 A 
ATOM      2  C   UNL     1      17.545 -12.565  26.015  1.00  0.00     0.051 A 
ATOM      3  C   UNL     1      16.789 -11.456  26.372  1.00  0.00     0.157 A 
ATOM      4  C   UNL     1      15.968 -10.832  25.436  1.00  0.00     0.157 A 
ATOM      5  C   UNL     1      15.883 -11.307  24.133  1.00  0.00     0.058 A 
ATOM      6  C   UNL     1      16.627 -12.433  23.755  1.00  0.00    -0.022 A 
ENDROOT
BRANCH   6   7
ATOM      7  C   UNL     1      16.612 -12.974  22.389  1.00  0.00     0.010 C 
ATOM      8  C   UNL     1      16.660 -14.278  22.073  1.00  0.00     0.025 C 
BRANCH   8   9
ATOM      9  C   UNL     1      16.665 -14.763  20.622  1.00  0.00     0.064 C 
ATOM     10  O   UNL     1      17.431 -15.730  20.353  1.00  0.00    -0.545 OA
ATOM     11  O   UNL     1      15.882 -14.119  19.867  1.00  0.00    -0.545 OA
ENDBRANCH   8   9
ENDBRANCH   6   7
BRANCH   3  12
ATOM     12  O   UNL     1      16.825 -10.937  27.639  1.00  0.00    -0.504 OA
ATOM     13  H   UNL     1      15.953 -11.089  28.039  1.00  0.00     0.293 HD
ENDBRANCH   3  12
BRANCH   4  14
ATOM     14  O   UNL     1      15.240  -9.734  25.802  1.00  0.00    -0.504 OA
ATOM     15  H   UNL     1      15.826  -9.255  26.418  1.00  0.00     0.293 HD
ENDBRANCH   4  14
TORSDOF 4
ENDMDL
