MODEL 1
REMARK VINA RESULT:    -7.284      0.000      0.000
REMARK INTER + INTRA:          -8.685
REMARK INTER:                  -8.561
REMARK INTRA:                  -0.124
REMARK UNBOUND:                -0.124
REMARK SMILES O=C([O-])/C=C/c1ccc(O)c(O)c1
REMARK SMILES IDX 7 1 8 2 9 3 11 4 13 5 6 6 5 7 4 8 2 9 1 10 3 11 10 12 12 14
REMARK H PARENT 10 13 12 15
ROOT
ATOM      1  C   UNL     1      15.920 -12.318  21.570  1.00  0.00     0.012 A 
ATOM      2  C   UNL     1      15.967 -13.309  20.584  1.00  0.00     0.051 A 
ATOM      3  C   UNL     1      16.548 -14.533  20.888  1.00  0.00     0.157 A 
ATOM      4  C   UNL     1      17.078 -14.766  22.154  1.00  0.00     0.157 A 
ATOM      5  C   UNL     1      17.032 -13.785  23.138  1.00  0.00     0.058 A 
ATOM      6  C   UNL     1      16.439 -12.548  22.857  1.00  0.00    -0.022 A 
ENDROOT
BRANCH   6   7
ATOM      7  C   UNL     1      16.381 -11.453  23.835  1.00  0.00     0.010 C 
ATOM      8  C   UNL     1      16.784 -11.535  25.114  1.00  0.00     0.025 C 
BRANCH   8   9
ATOM      9  C   UNL     1      16.668 -10.355  26.080  1.00  0.00     0.064 C 
ATOM     10  O   UNL     1      17.596 -10.226  26.926  1.00  0.00    -0.545 OA
ATOM     11  O   UNL     1      15.637  -9.646  25.897  1.00  0.00    -0.545 OA
ENDBRANCH   8   9
ENDBRANCH   6   7
BRANCH   3  12
ATOM     12  O   UNL     1      16.625 -15.543  19.966  1.00  0.00    -0.504 OA
ATOM     13  H   UNL     1      17.208 -15.238  19.251  1.00  0.00     0.293 HD
ENDBRANCH   3  12
BRANCH   4  14
ATOM     14  O   UNL     1      17.656 -15.974  22.432  1.00  0.00    -0.504 OA
ATOM     15  H   UNL     1      18.565 -15.887  22.090  1.00  0.00     0.293 HD
ENDBRANCH   4  14
TORSDOF 4
ENDMDL
MODEL 2
REMARK VINA RESULT:    -7.279      1.650      5.851
REMARK INTER + INTRA:          -8.680
REMARK INTER:                  -8.557
REMARK INTRA:                  -0.123
REMARK UNBOUND:                -0.124
REMARK SMILES O=C([O-])/C=C/c1ccc(O)c(O)c1
REMARK SMILES IDX 7 1 8 2 9 3 11 4 13 5 6 6 5 7 4 8 2 9 1 10 3 11 10 12 12 14
REMARK H PARENT 10 13 12 15
ROOT
ATOM      1  C   UNL     1      15.877 -11.960  22.003  1.00  0.00     0.012 A 
ATOM      2  C   UNL     1      16.088 -11.211  23.165  1.00  0.00     0.051 A 
ATOM      3  C   UNL     1      16.770 -11.792  24.226  1.00  0.00     0.157 A 
ATOM      4  C   UNL     1      17.232 -13.103  24.133  1.00  0.00     0.157 A 
ATOM      5  C   UNL     1      17.025 -13.852  22.980  1.00  0.00     0.058 A 
ATOM      6  C   UNL     1      16.351 -13.280  21.893  1.00  0.00    -0.022 A 
ENDROOT
BRANCH   6   7
ATOM      7  C   UNL     1      16.069 -14.018  20.655  1.00  0.00     0.010 C 
ATOM      8  C   UNL     1      16.611 -15.199  20.317  1.00  0.00     0.025 C 
BRANCH   8   9
ATOM      9  C   UNL     1      16.285 -15.896  18.995  1.00  0.00     0.064 C 
ATOM     10  O   UNL     1      15.903 -15.154  18.047  1.00  0.00    -0.545 OA
ATOM     11  O   UNL     1      16.446 -17.149  19.026  1.00  0.00    -0.545 OA
ENDBRANCH   8   9
ENDBRANCH   6   7
BRANCH   3  12
ATOM     12  O   UNL     1      17.008 -11.111  25.390  1.00  0.00    -0.504 OA
ATOM     13  H   UNL     1      16.611 -10.228  25.295  1.00  0.00     0.293 HD
ENDBRANCH   3  12
BRANCH   4  14
ATOM     14  O   UNL     1      17.892 -13.663  25.192  1.00  0.00    -0.504 OA
ATOM     15  H   UNL     1      18.500 -12.961  25.491  1.00  0.00     0.293 HD
ENDBRANCH   4  14
TORSDOF 4
ENDMDL
MODEL 3
REMARK VINA RESULT:    -7.086      2.401      6.529
REMARK INTER + INTRA:          -8.453
REMARK INTER:                  -8.312
REMARK INTRA:                  -0.141
REMARK UNBOUND:                -0.124
REMARK SMILES O=C([O-])/C=C/c1ccc(O)c(O)c1
REMARK SMILES IDX 7 1 8 2 9 3 11 4 13 5 6 6 5 7 4 8 2 9 1 10 3 11 10 12 12 14
REMARK H PARENT 10 13 12 15
ROOT
ATOM      1  C   UNL     1      15.967 -13.793  20.573  1.00  0.00     0.012 A 
ATOM      2  C   UNL     1      15.975 -12.591  21.288  1.00  0.00     0.051 A 
ATOM      3  C   UNL     1      16.554 -12.563  22.550  1.00  0.00     0.157 A 
ATOM      4  C   UNL     1      17.111 -13.718  23.095  1.00  0.00     0.157 A 
ATOM      5  C   UNL     1      17.106 -14.914  22.388  1.00  0.00     0.058 A 
ATOM      6  C   UNL     1      16.539 -14.961  21.107  1.00  0.00    -0.022 A 
ENDROOT
BRANCH   6   7
ATOM      7  C   UNL     1      16.470 -16.195  20.313  1.00  0.00     0.010 C 
ATOM      8  C   UNL     1      16.727 -16.285  18.999  1.00  0.00     0.025 C 
BRANCH   8   9
ATOM      9  C   UNL     1      16.609 -17.606  18.236  1.00  0.00     0.064 C 
ATOM     10  O   UNL     1      15.988 -17.569  17.137  1.00  0.00    -0.545 OA
ATOM     11  O   UNL     1      17.163 -18.582  18.818  1.00  0.00    -0.545 OA
ENDBRANCH   8   9
ENDBRANCH   6   7
BRANCH   3  12
ATOM     12  O   UNL     1      16.594 -11.418  23.300  1.00  0.00    -0.504 OA
ATOM     13  H   UNL     1      15.675 -11.158  23.481  1.00  0.00     0.293 HD
ENDBRANCH   3  12
BRANCH   4  14
ATOM     14  O   UNL     1      17.667 -13.675  24.344  1.00  0.00    -0.504 OA
ATOM     15  H   UNL     1      18.269 -14.442  24.363  1.00  0.00     0.293 HD
ENDBRANCH   4  14
TORSDOF 4
ENDMDL
MODEL 4
REMARK VINA RESULT:    -7.061      1.357      1.751
REMARK INTER + INTRA:          -8.424
REMARK INTER:                  -8.278
REMARK INTRA:                  -0.146
REMARK UNBOUND:                -0.124
REMARK SMILES O=C([O-])/C=C/c1ccc(O)c(O)c1
REMARK SMILES IDX 7 1 8 2 9 3 11 4 13 5 6 6 5 7 4 8 2 9 1 10 3 11 10 12 12 14
REMARK H PARENT 10 13 12 15
ROOT
ATOM      1  C   UNL     1      16.247 -13.264  21.056  1.00  0.00     0.012 A 
ATOM      2  C   UNL     1      16.274 -13.838  19.781  1.00  0.00     0.051 A 
ATOM      3  C   UNL     1      16.737 -15.140  19.640  1.00  0.00     0.157 A 
ATOM      4  C   UNL     1      17.172 -15.858  20.752  1.00  0.00     0.157 A 
ATOM      5  C   UNL     1      17.146 -15.291  22.021  1.00  0.00     0.058 A 
ATOM      6  C   UNL     1      16.671 -13.983  22.187  1.00  0.00    -0.022 A 
ENDROOT
BRANCH   6   7
ATOM      7  C   UNL     1      16.642 -13.308  23.492  1.00  0.00     0.010 C 
ATOM      8  C   UNL     1      15.852 -12.270  23.809  1.00  0.00     0.025 C 
BRANCH   8   9
ATOM      9  C   UNL     1      15.898 -11.603  25.185  1.00  0.00     0.064 C 
ATOM     10  O   UNL     1      15.825 -12.370  26.185  1.00  0.00    -0.545 OA
ATOM     11  O   UNL     1      16.010 -10.345  25.138  1.00  0.00    -0.545 OA
ENDBRANCH   8   9
ENDBRANCH   6   7
BRANCH   3  12
ATOM     12  O   UNL     1      16.788 -15.758  18.419  1.00  0.00    -0.504 OA
ATOM     13  H   UNL     1      17.679 -15.616  18.059  1.00  0.00     0.293 HD
ENDBRANCH   3  12
BRANCH   4  14
ATOM     14  O   UNL     1      17.635 -17.134  20.592  1.00  0.00    -0.504 OA
ATOM     15  H   UNL     1      16.830 -17.685  20.625  1.00  0.00     0.293 HD
ENDBRANCH   4  14
TORSDOF 4
ENDMDL
MODEL 5
REMARK VINA RESULT:    -7.011      1.209      5.678
REMARK INTER + INTRA:          -8.365
REMARK INTER:                  -8.241
REMARK INTRA:                  -0.124
REMARK UNBOUND:                -0.124
REMARK SMILES O=C([O-])/C=C/c1ccc(O)c(O)c1
REMARK SMILES IDX 7 1 8 2 9 3 11 4 13 5 6 6 5 7 4 8 2 9 1 10 3 11 10 12 12 14
REMARK H PARENT 10 13 12 15
ROOT
ATOM      1  C   UNL     1      15.683 -11.319  23.340  1.00  0.00     0.012 A 
ATOM      2  C   UNL     1      15.690 -10.630  24.558  1.00  0.00     0.051 A 
ATOM      3  C   UNL     1      16.441 -11.134  25.611  1.00  0.00     0.157 A 
ATOM      4  C   UNL     1      17.172 -12.310  25.456  1.00  0.00     0.157 A 
ATOM      5  C   UNL     1      17.169 -12.997  24.248  1.00  0.00     0.058 A 
ATOM      6  C   UNL     1      16.428 -12.499  23.168  1.00  0.00    -0.022 A 
ENDROOT
BRANCH   6   7
ATOM      7  C   UNL     1      16.353 -13.186  21.872  1.00  0.00     0.010 C 
ATOM      8  C   UNL     1      16.761 -14.443  21.636  1.00  0.00     0.025 C 
BRANCH   8   9
ATOM      9  C   UNL     1      16.671 -15.081  20.249  1.00  0.00     0.064 C 
ATOM     10  O   UNL     1      15.802 -14.607  19.466  1.00  0.00    -0.545 OA
ATOM     11  O   UNL     1      17.500 -16.017  20.064  1.00  0.00    -0.545 OA
ENDBRANCH   8   9
ENDBRANCH   6   7
BRANCH   3  12
ATOM     12  O   UNL     1      16.489 -10.507  26.827  1.00  0.00    -0.504 OA
ATOM     13  H   UNL     1      16.806 -11.157  27.477  1.00  0.00     0.293 HD
ENDBRANCH   3  12
BRANCH   4  14
ATOM     14  O   UNL     1      17.897 -12.798  26.508  1.00  0.00    -0.504 OA
ATOM     15  H   UNL     1      18.709 -12.256  26.508  1.00  0.00     0.293 HD
ENDBRANCH   4  14
TORSDOF 4
ENDMDL
MODEL 6
REMARK VINA RESULT:    -6.985      2.290      3.525
REMARK INTER + INTRA:          -8.335
REMARK INTER:                  -8.189
REMARK INTRA:                  -0.146
REMARK UNBOUND:                -0.124
REMARK SMILES O=C([O-])/C=C/c1ccc(O)c(O)c1
REMARK SMILES IDX 7 1 8 2 9 3 11 4 13 5 6 6 5 7 4 8 2 9 1 10 3 11 10 12 12 14
REMARK H PARENT 10 13 12 15
ROOT
ATOM      1  C   UNL     1      17.064 -15.644  21.350  1.00  0.00     0.012 A 
ATOM      2  C   UNL     1      17.473 -16.766  20.621  1.00  0.00     0.051 A 
ATOM      3  C   UNL     1      17.248 -16.797  19.251  1.00  0.00     0.157 A 
ATOM      4  C   UNL     1      16.619 -15.728  18.616  1.00  0.00     0.157 A 
ATOM      5  C   UNL     1      16.210 -14.611  19.337  1.00  0.00     0.058 A 
ATOM      6  C   UNL     1      16.440 -14.554  20.717  1.00  0.00    -0.022 A 
ENDROOT
BRANCH   6   7
ATOM      7  C   UNL     1      16.010 -13.421  21.548  1.00  0.00     0.010 C 
ATOM      8  C   UNL     1      16.476 -13.141  22.776  1.00  0.00     0.025 C 
BRANCH   8   9
ATOM      9  C   UNL     1      15.959 -11.953  23.590  1.00  0.00     0.064 C 
ATOM     10  O   UNL     1      16.263 -10.804  23.166  1.00  0.00    -0.545 OA
ATOM     11  O   UNL     1      15.277 -12.287  24.601  1.00  0.00    -0.545 OA
ENDBRANCH   8   9
ENDBRANCH   6   7
BRANCH   3  12
ATOM     12  O   UNL     1      17.626 -17.865  18.483  1.00  0.00    -0.504 OA
ATOM     13  H   UNL     1      17.078 -18.622  18.750  1.00  0.00     0.293 HD
ENDBRANCH   3  12
BRANCH   4  14
ATOM     14  O   UNL     1      16.395 -15.781  17.269  1.00  0.00    -0.504 OA
ATOM     15  H   UNL     1      17.287 -15.728  16.877  1.00  0.00     0.293 HD
ENDBRANCH   4  14
TORSDOF 4
ENDMDL
MODEL 7
REMARK VINA RESULT:    -6.967      2.666      4.089
REMARK INTER + INTRA:          -8.314
REMARK INTER:                  -8.190
REMARK INTRA:                  -0.124
REMARK UNBOUND:                -0.124
REMARK SMILES O=C([O-])/C=C/c1ccc(O)c(O)c1
REMARK SMILES IDX 7 1 8 2 9 3 11 4 13 5 6 6 5 7 4 8 2 9 1 10 3 11 10 12 12 14
REMARK H PARENT 10 13 12 15
ROOT
ATOM      1  C   UNL     1      16.181 -16.930  21.045  1.00  0.00     0.012 A 
ATOM      2  C   UNL     1      15.926 -17.861  20.034  1.00  0.00     0.051 A 
ATOM      3  C   UNL     1      15.990 -17.451  18.709  1.00  0.00     0.157 A 
ATOM      4  C   UNL     1      16.300 -16.129  18.396  1.00  0.00     0.157 A 
ATOM      5  C   UNL     1      16.555 -15.200  19.397  1.00  0.00     0.058 A 
ATOM      6  C   UNL     1      16.508 -15.596  20.740  1.00  0.00    -0.022 A 
ENDROOT
BRANCH   6   7
ATOM      7  C   UNL     1      16.736 -14.665  21.853  1.00  0.00     0.010 C 
ATOM      8  C   UNL     1      16.379 -13.370  21.865  1.00  0.00     0.025 C 
BRANCH   8   9
ATOM      9  C   UNL     1      16.674 -12.456  23.055  1.00  0.00     0.064 C 
ATOM     10  O   UNL     1      17.150 -13.009  24.086  1.00  0.00    -0.545 OA
ATOM     11  O   UNL     1      16.399 -11.241  22.844  1.00  0.00    -0.545 OA
ENDBRANCH   8   9
ENDBRANCH   6   7
BRANCH   3  12
ATOM     12  O   UNL     1      15.751 -18.315  17.674  1.00  0.00    -0.504 OA
ATOM     13  H   UNL     1      14.916 -18.043  17.257  1.00  0.00     0.293 HD
ENDBRANCH   3  12
BRANCH   4  14
ATOM     14  O   UNL     1      16.348 -15.740  17.086  1.00  0.00    -0.504 OA
ATOM     15  H   UNL     1      17.296 -15.578  16.921  1.00  0.00     0.293 HD
ENDBRANCH   4  14
TORSDOF 4
ENDMDL
MODEL 8
REMARK VINA RESULT:    -6.952      2.303      6.449
REMARK INTER + INTRA:          -8.296
REMARK INTER:                  -8.144
REMARK INTRA:                  -0.151
REMARK UNBOUND:                -0.124
REMARK SMILES O=C([O-])/C=C/c1ccc(O)c(O)c1
REMARK SMILES IDX 7 1 8 2 9 3 11 4 13 5 6 6 5 7 4 8 2 9 1 10 3 11 10 12 12 14
REMARK H PARENT 10 13 12 15
ROOT
ATOM      1  C   UNL     1      16.972 -14.727  22.063  1.00  0.00     0.012 A 
ATOM      2  C   UNL     1      17.332 -14.144  23.282  1.00  0.00     0.051 A 
ATOM      3  C   UNL     1      17.048 -12.802  23.496  1.00  0.00     0.157 A 
ATOM      4  C   UNL     1      16.419 -12.049  22.508  1.00  0.00     0.157 A 
ATOM      5  C   UNL     1      16.058 -12.624  21.294  1.00  0.00     0.058 A 
ATOM      6  C   UNL     1      16.324 -13.980  21.063  1.00  0.00    -0.022 A 
ENDROOT
BRANCH   6   7
ATOM      7  C   UNL     1      15.999 -14.649  19.796  1.00  0.00     0.010 C 
ATOM      8  C   UNL     1      16.396 -15.884  19.449  1.00  0.00     0.025 C 
BRANCH   8   9
ATOM      9  C   UNL     1      16.036 -16.503  18.097  1.00  0.00     0.064 C 
ATOM     10  O   UNL     1      15.765 -17.736  18.096  1.00  0.00    -0.545 OA
ATOM     11  O   UNL     1      16.056 -15.680  17.139  1.00  0.00    -0.545 OA
ENDBRANCH   8   9
ENDBRANCH   6   7
BRANCH   3  12
ATOM     12  O   UNL     1      17.375 -12.174  24.668  1.00  0.00    -0.504 OA
ATOM     13  H   UNL     1      17.653 -11.269  24.444  1.00  0.00     0.293 HD
ENDBRANCH   3  12
BRANCH   4  14
ATOM     14  O   UNL     1      16.157 -10.725  22.731  1.00  0.00    -0.504 OA
ATOM     15  H   UNL     1      17.021 -10.289  22.612  1.00  0.00     0.293 HD
ENDBRANCH   4  14
TORSDOF 4
ENDMDL
MODEL 9
REMARK VINA RESULT:    -6.607      1.136      5.997
REMARK INTER + INTRA:          -7.890
REMARK INTER:                  -7.741
REMARK INTRA:                  -0.149
REMARK UNBOUND:                -0.124
REMARK SMILES O=C([O-])/C=C/c1ccc(O)c(O)c1
REMARK SMILES IDX 7 1 8 2 9 3 11 4 13 5 6 6 5 7 4 8 2 9 1 10 3 11 10 12 12 14
REMARK H PARENT 10 13 12 15
ROOT
ATOM      1  C   UNL     1      17.308 -13.065  24.658  1.00  0.00     0.012 A 
ATOM      2  C   UNL     1      17.461 -12.564  25.955  1.00  0.00     0.051 A 
ATOM      3  C   UNL     1      16.727 -11.447  26.335  1.00  0.00     0.157 A 
ATOM      4  C   UNL     1      15.857 -10.836  25.435  1.00  0.00     0.157 A 
ATOM      5  C   UNL     1      15.702 -11.332  24.145  1.00  0.00     0.058 A 
ATOM      6  C   UNL     1      16.422 -12.465  23.746  1.00  0.00    -0.022 A 
ENDROOT
BRANCH   6   7
ATOM      7  C   UNL     1      16.332 -13.027  22.391  1.00  0.00     0.010 C 
ATOM      8  C   UNL     1      16.718 -14.264  22.040  1.00  0.00     0.025 C 
BRANCH   8   9
ATOM      9  C   UNL     1      16.615 -14.769  20.599  1.00  0.00     0.064 C 
ATOM     10  O   UNL     1      15.763 -14.199  19.862  1.00  0.00    -0.545 OA
ATOM     11  O   UNL     1      17.416 -15.709  20.331  1.00  0.00    -0.545 OA
ENDBRANCH   8   9
ENDBRANCH   6   7
BRANCH   3  12
ATOM     12  O   UNL     1      16.833 -10.909  27.589  1.00  0.00    -0.504 OA
ATOM     13  H   UNL     1      17.547 -11.382  28.049  1.00  0.00     0.293 HD
ENDBRANCH   3  12
BRANCH   4  14
ATOM     14  O   UNL     1      15.152  -9.731  25.823  1.00  0.00    -0.504 OA
ATOM     15  H   UNL     1      14.805  -9.968  26.704  1.00  0.00     0.293 HD
ENDBRANCH   4  14
TORSDOF 4
ENDMDL
