MODEL 1
REMARK VINA RESULT:    -7.487      0.000      0.000
REMARK INTER + INTRA:          -9.646
REMARK INTER:                  -9.456
REMARK INTRA:                  -0.190
REMARK UNBOUND:                -0.190
REMARK SMILES O=C([O-])[C@H](O)Cc1ccc(O)c(O)c1
REMARK SMILES IDX 6 1 7 2 8 3 9 4 10 5 14 6 12 7 11 8 13 10 4 12 2 13 1 14
REMARK SMILES IDX 3 15 5 16
REMARK H PARENT 11 9 13 11 5 17
ROOT
ATOM      1  C   UNL     1      16.534 -15.485  20.510  1.00  0.00     0.073 C 
ENDROOT
BRANCH   1   2
ATOM      2  C   UNL     1      16.575 -14.317  21.476  1.00  0.00    -0.041 A 
ATOM      3  C   UNL     1      16.012 -13.076  21.130  1.00  0.00     0.008 A 
ATOM      4  C   UNL     1      16.047 -12.005  22.027  1.00  0.00     0.050 A 
ATOM      5  C   UNL     1      16.633 -12.183  23.271  1.00  0.00     0.157 A 
ATOM      6  C   UNL     1      17.162 -14.476  22.740  1.00  0.00     0.054 A 
ATOM      7  C   UNL     1      17.181 -13.411  23.630  1.00  0.00     0.157 A 
BRANCH   5   8
ATOM      8  O   UNL     1      16.665 -11.143  24.159  1.00  0.00    -0.504 OA
ATOM      9  H   UNL     1      17.270 -10.502  23.734  1.00  0.00     0.293 HD
ENDBRANCH   5   8
BRANCH   7  10
ATOM     10  O   UNL     1      17.727 -13.538  24.880  1.00  0.00    -0.504 OA
ATOM     11  H   UNL     1      17.454 -12.743  25.375  1.00  0.00     0.293 HD
ENDBRANCH   7  10
ENDBRANCH   1   2
BRANCH   1  12
ATOM     12  C   UNL     1      17.107 -16.771  21.105  1.00  0.00     0.164 C 
BRANCH  12  13
ATOM     13  C   UNL     1      17.892 -17.590  20.033  1.00  0.00     0.070 C 
ATOM     14  O   UNL     1      17.130 -18.203  19.219  1.00  0.00    -0.547 OA
ATOM     15  O   UNL     1      19.151 -17.563  20.097  1.00  0.00    -0.547 OA
ENDBRANCH  12  13
BRANCH  12  16
ATOM     16  O   UNL     1      16.010 -17.588  21.607  1.00  0.00    -0.387 OA
ATOM     17  H   UNL     1      15.284 -16.918  21.680  1.00  0.00     0.211 HD
ENDBRANCH  12  16
ENDBRANCH   1  12
TORSDOF 6
ENDMDL
MODEL 2
REMARK VINA RESULT:    -7.376      1.182      1.579
REMARK INTER + INTRA:          -9.507
REMARK INTER:                  -9.439
REMARK INTRA:                  -0.068
REMARK UNBOUND:                -0.190
REMARK SMILES O=C([O-])[C@H](O)Cc1ccc(O)c(O)c1
REMARK SMILES IDX 6 1 7 2 8 3 9 4 10 5 14 6 12 7 11 8 13 10 4 12 2 13 1 14
REMARK SMILES IDX 3 15 5 16
REMARK H PARENT 11 9 13 11 5 17
ROOT
ATOM      1  C   UNL     1      16.155 -14.149  20.766  1.00  0.00     0.073 C 
ENDROOT
BRANCH   1   2
ATOM      2  C   UNL     1      16.404 -13.300  21.997  1.00  0.00    -0.041 A 
ATOM      3  C   UNL     1      15.952 -11.970  22.058  1.00  0.00     0.008 A 
ATOM      4  C   UNL     1      16.178 -11.195  23.199  1.00  0.00     0.050 A 
ATOM      5  C   UNL     1      16.844 -11.755  24.278  1.00  0.00     0.157 A 
ATOM      6  C   UNL     1      17.075 -13.848  23.100  1.00  0.00     0.054 A 
ATOM      7  C   UNL     1      17.284 -13.075  24.233  1.00  0.00     0.157 A 
BRANCH   5   8
ATOM      8  O   UNL     1      17.064 -11.006  25.401  1.00  0.00    -0.504 OA
ATOM      9  H   UNL     1      17.634 -11.581  25.948  1.00  0.00     0.293 HD
ENDBRANCH   5   8
BRANCH   7  10
ATOM     10  O   UNL     1      17.916 -13.585  25.336  1.00  0.00    -0.504 OA
ATOM     11  H   UNL     1      18.251 -14.463  25.073  1.00  0.00     0.293 HD
ENDBRANCH   7  10
ENDBRANCH   1   2
BRANCH   1  12
ATOM     12  C   UNL     1      16.830 -15.518  20.839  1.00  0.00     0.164 C 
BRANCH  12  13
ATOM     13  C   UNL     1      17.136 -16.077  19.415  1.00  0.00     0.070 C 
ATOM     14  O   UNL     1      18.199 -16.774  19.372  1.00  0.00    -0.547 OA
ATOM     15  O   UNL     1      16.328 -15.777  18.494  1.00  0.00    -0.547 OA
ENDBRANCH  12  13
BRANCH  12  16
ATOM     16  O   UNL     1      15.940 -16.446  21.525  1.00  0.00    -0.387 OA
ATOM     17  H   UNL     1      16.309 -16.428  22.445  1.00  0.00     0.211 HD
ENDBRANCH  12  16
ENDBRANCH   1  12
TORSDOF 6
ENDMDL
MODEL 3
REMARK VINA RESULT:    -7.184      1.560      2.064
REMARK INTER + INTRA:          -9.264
REMARK INTER:                  -9.053
REMARK INTRA:                  -0.212
REMARK UNBOUND:                -0.190
REMARK SMILES O=C([O-])[C@H](O)Cc1ccc(O)c(O)c1
REMARK SMILES IDX 6 1 7 2 8 3 9 4 10 5 14 6 12 7 11 8 13 10 4 12 2 13 1 14
REMARK SMILES IDX 3 15 5 16
REMARK H PARENT 11 9 13 11 5 17
ROOT
ATOM      1  C   UNL     1      16.659 -16.331  20.369  1.00  0.00     0.073 C 
ENDROOT
BRANCH   1   2
ATOM      2  C   UNL     1      16.613 -15.020  21.129  1.00  0.00    -0.041 A 
ATOM      3  C   UNL     1      16.014 -13.881  20.563  1.00  0.00     0.008 A 
ATOM      4  C   UNL     1      15.969 -12.676  21.270  1.00  0.00     0.050 A 
ATOM      5  C   UNL     1      16.510 -12.619  22.545  1.00  0.00     0.157 A 
ATOM      6  C   UNL     1      17.154 -14.941  22.420  1.00  0.00     0.054 A 
ATOM      7  C   UNL     1      17.093 -13.744  23.121  1.00  0.00     0.157 A 
BRANCH   5   8
ATOM      8  O   UNL     1      16.463 -11.447  23.248  1.00  0.00    -0.504 OA
ATOM      9  H   UNL     1      16.915 -11.668  24.087  1.00  0.00     0.293 HD
ENDBRANCH   5   8
BRANCH   7  10
ATOM     10  O   UNL     1      17.592 -13.638  24.392  1.00  0.00    -0.504 OA
ATOM     11  H   UNL     1      18.415 -14.161  24.403  1.00  0.00     0.293 HD
ENDBRANCH   7  10
ENDBRANCH   1   2
BRANCH   1  12
ATOM     12  C   UNL     1      17.326 -16.204  19.000  1.00  0.00     0.164 C 
BRANCH  12  13
ATOM     13  C   UNL     1      16.353 -16.625  17.854  1.00  0.00     0.070 C 
ATOM     14  O   UNL     1      15.986 -15.646  17.129  1.00  0.00    -0.547 OA
ATOM     15  O   UNL     1      16.042 -17.845  17.783  1.00  0.00    -0.547 OA
ENDBRANCH  12  13
BRANCH  12  16
ATOM     16  O   UNL     1      18.497 -17.071  18.962  1.00  0.00    -0.387 OA
ATOM     17  H   UNL     1      18.308 -17.687  19.716  1.00  0.00     0.211 HD
ENDBRANCH  12  16
ENDBRANCH   1  12
TORSDOF 6
ENDMDL
MODEL 4
REMARK VINA RESULT:    -7.160      1.670      5.892
REMARK INTER + INTRA:          -9.234
REMARK INTER:                  -9.081
REMARK INTRA:                  -0.153
REMARK UNBOUND:                -0.190
REMARK SMILES O=C([O-])[C@H](O)Cc1ccc(O)c(O)c1
REMARK SMILES IDX 6 1 7 2 8 3 9 4 10 5 14 6 12 7 11 8 13 10 4 12 2 13 1 14
REMARK SMILES IDX 3 15 5 16
REMARK H PARENT 11 9 13 11 5 17
ROOT
ATOM      1  C   UNL     1      16.316 -13.157  21.384  1.00  0.00     0.073 C 
ENDROOT
BRANCH   1   2
ATOM      2  C   UNL     1      16.280 -14.479  20.643  1.00  0.00    -0.041 A 
ATOM      3  C   UNL     1      16.131 -15.691  21.339  1.00  0.00     0.008 A 
ATOM      4  C   UNL     1      16.091 -16.906  20.650  1.00  0.00     0.050 A 
ATOM      5  C   UNL     1      16.188 -16.904  19.267  1.00  0.00     0.157 A 
ATOM      6  C   UNL     1      16.376 -14.499  19.244  1.00  0.00     0.054 A 
ATOM      7  C   UNL     1      16.323 -15.709  18.566  1.00  0.00     0.157 A 
BRANCH   5   8
ATOM      8  O   UNL     1      16.144 -18.088  18.584  1.00  0.00    -0.504 OA
ATOM      9  H   UNL     1      15.579 -18.653  19.148  1.00  0.00     0.293 HD
ENDBRANCH   5   8
BRANCH   7  10
ATOM     10  O   UNL     1      16.392 -15.763  17.199  1.00  0.00    -0.504 OA
ATOM     11  H   UNL     1      16.316 -14.842  16.889  1.00  0.00     0.293 HD
ENDBRANCH   7  10
ENDBRANCH   1   2
BRANCH   1  12
ATOM     12  C   UNL     1      16.498 -13.324  22.893  1.00  0.00     0.164 C 
BRANCH  12  13
ATOM     13  C   UNL     1      15.929 -12.097  23.671  1.00  0.00     0.070 C 
ATOM     14  O   UNL     1      16.201 -10.986  23.114  1.00  0.00    -0.547 OA
ATOM     15  O   UNL     1      15.295 -12.334  24.734  1.00  0.00    -0.547 OA
ENDBRANCH  12  13
BRANCH  12  16
ATOM     16  O   UNL     1      17.920 -13.447  23.186  1.00  0.00    -0.387 OA
ATOM     17  H   UNL     1      18.215 -12.502  23.127  1.00  0.00     0.211 HD
ENDBRANCH  12  16
ENDBRANCH   1  12
TORSDOF 6
ENDMDL
MODEL 5
REMARK VINA RESULT:    -7.137      1.214      1.654
REMARK INTER + INTRA:          -9.204
REMARK INTER:                  -8.958
REMARK INTRA:                  -0.247
REMARK UNBOUND:                -0.190
REMARK SMILES O=C([O-])[C@H](O)Cc1ccc(O)c(O)c1
REMARK SMILES IDX 6 1 7 2 8 3 9 4 10 5 14 6 12 7 11 8 13 10 4 12 2 13 1 14
REMARK SMILES IDX 3 15 5 16
REMARK H PARENT 11 9 13 11 5 17
ROOT
ATOM      1  C   UNL     1      16.412 -16.727  20.752  1.00  0.00     0.073 C 
ENDROOT
BRANCH   1   2
ATOM      2  C   UNL     1      16.454 -15.285  21.217  1.00  0.00    -0.041 A 
ATOM      3  C   UNL     1      15.769 -14.280  20.511  1.00  0.00     0.008 A 
ATOM      4  C   UNL     1      15.806 -12.953  20.948  1.00  0.00     0.050 A 
ATOM      5  C   UNL     1      16.516 -12.637  22.095  1.00  0.00     0.157 A 
ATOM      6  C   UNL     1      17.166 -14.944  22.376  1.00  0.00     0.054 A 
ATOM      7  C   UNL     1      17.187 -13.625  22.810  1.00  0.00     0.157 A 
BRANCH   5   8
ATOM      8  O   UNL     1      16.552 -11.343  22.534  1.00  0.00    -0.504 OA
ATOM      9  H   UNL     1      17.303 -11.337  23.161  1.00  0.00     0.293 HD
ENDBRANCH   5   8
BRANCH   7  10
ATOM     10  O   UNL     1      17.855 -13.262  23.949  1.00  0.00    -0.504 OA
ATOM     11  H   UNL     1      18.109 -14.094  24.390  1.00  0.00     0.293 HD
ENDBRANCH   7  10
ENDBRANCH   1   2
BRANCH   1  12
ATOM     12  C   UNL     1      17.765 -17.231  20.250  1.00  0.00     0.164 C 
BRANCH  12  13
ATOM     13  C   UNL     1      17.925 -16.993  18.717  1.00  0.00     0.070 C 
ATOM     14  O   UNL     1      19.135 -17.060  18.327  1.00  0.00    -0.547 OA
ATOM     15  O   UNL     1      16.876 -16.758  18.058  1.00  0.00    -0.547 OA
ENDBRANCH  12  13
BRANCH  12  16
ATOM     16  O   UNL     1      17.863 -18.661  20.515  1.00  0.00    -0.387 OA
ATOM     17  H   UNL     1      16.919 -18.890  20.709  1.00  0.00     0.211 HD
ENDBRANCH  12  16
ENDBRANCH   1  12
TORSDOF 6
ENDMDL
MODEL 6
REMARK VINA RESULT:    -7.107      2.063      5.593
REMARK INTER + INTRA:          -9.166
REMARK INTER:                  -9.143
REMARK INTRA:                  -0.023
REMARK UNBOUND:                -0.190
REMARK SMILES O=C([O-])[C@H](O)Cc1ccc(O)c(O)c1
REMARK SMILES IDX 6 1 7 2 8 3 9 4 10 5 14 6 12 7 11 8 13 10 4 12 2 13 1 14
REMARK SMILES IDX 3 15 5 16
REMARK H PARENT 11 9 13 11 5 17
ROOT
ATOM      1  C   UNL     1      16.496 -10.954  23.601  1.00  0.00     0.073 C 
ENDROOT
BRANCH   1   2
ATOM      2  C   UNL     1      16.442 -12.200  22.741  1.00  0.00    -0.041 A 
ATOM      3  C   UNL     1      15.764 -12.197  21.509  1.00  0.00     0.008 A 
ATOM      4  C   UNL     1      15.723 -13.348  20.717  1.00  0.00     0.050 A 
ATOM      5  C   UNL     1      16.369 -14.494  21.154  1.00  0.00     0.157 A 
ATOM      6  C   UNL     1      17.090 -13.370  23.164  1.00  0.00     0.054 A 
ATOM      7  C   UNL     1      17.054 -14.505  22.365  1.00  0.00     0.157 A 
BRANCH   5   8
ATOM      8  O   UNL     1      16.341 -15.622  20.382  1.00  0.00    -0.504 OA
ATOM      9  H   UNL     1      15.544 -15.497  19.828  1.00  0.00     0.293 HD
ENDBRANCH   5   8
BRANCH   7  10
ATOM     10  O   UNL     1      17.695 -15.657  22.738  1.00  0.00    -0.504 OA
ATOM     11  H   UNL     1      17.750 -16.207  21.934  1.00  0.00     0.293 HD
ENDBRANCH   7  10
ENDBRANCH   1   2
BRANCH   1  12
ATOM     12  C   UNL     1      15.658 -11.070  24.874  1.00  0.00     0.164 C 
BRANCH  12  13
ATOM     13  C   UNL     1      16.470 -11.739  26.027  1.00  0.00     0.070 C 
ATOM     14  O   UNL     1      17.571 -11.148  26.267  1.00  0.00    -0.547 OA
ATOM     15  O   UNL     1      15.967 -12.760  26.568  1.00  0.00    -0.547 OA
ENDBRANCH  12  13
BRANCH  12  16
ATOM     16  O   UNL     1      14.484 -11.887  24.594  1.00  0.00    -0.387 OA
ATOM     17  H   UNL     1      13.980 -11.803  25.443  1.00  0.00     0.211 HD
ENDBRANCH  12  16
ENDBRANCH   1  12
TORSDOF 6
ENDMDL
MODEL 7
REMARK VINA RESULT:    -7.106      1.329      5.514
REMARK INTER + INTRA:          -9.165
REMARK INTER:                  -8.967
REMARK INTRA:                  -0.198
REMARK UNBOUND:                -0.190
REMARK SMILES O=C([O-])[C@H](O)Cc1ccc(O)c(O)c1
REMARK SMILES IDX 6 1 7 2 8 3 9 4 10 5 14 6 12 7 11 8 13 10 4 12 2 13 1 14
REMARK SMILES IDX 3 15 5 16
REMARK H PARENT 11 9 13 11 5 17
ROOT
ATOM      1  C   UNL     1      16.881 -12.631  22.893  1.00  0.00     0.073 C 
ENDROOT
BRANCH   1   2
ATOM      2  C   UNL     1      16.665 -13.712  21.853  1.00  0.00    -0.041 A 
ATOM      3  C   UNL     1      16.102 -13.406  20.602  1.00  0.00     0.008 A 
ATOM      4  C   UNL     1      15.911 -14.406  19.644  1.00  0.00     0.050 A 
ATOM      5  C   UNL     1      16.295 -15.706  19.936  1.00  0.00     0.157 A 
ATOM      6  C   UNL     1      17.047 -15.033  22.128  1.00  0.00     0.054 A 
ATOM      7  C   UNL     1      16.865 -16.018  21.167  1.00  0.00     0.157 A 
BRANCH   5   8
ATOM      8  O   UNL     1      16.118 -16.690  19.003  1.00  0.00    -0.504 OA
ATOM      9  H   UNL     1      16.984 -17.145  18.989  1.00  0.00     0.293 HD
ENDBRANCH   5   8
BRANCH   7  10
ATOM     10  O   UNL     1      17.248 -17.314  21.395  1.00  0.00    -0.504 OA
ATOM     11  H   UNL     1      16.668 -17.868  20.839  1.00  0.00     0.293 HD
ENDBRANCH   7  10
ENDBRANCH   1   2
BRANCH   1  12
ATOM     12  C   UNL     1      16.775 -13.152  24.326  1.00  0.00     0.164 C 
BRANCH  12  13
ATOM     13  C   UNL     1      15.862 -12.233  25.197  1.00  0.00     0.070 C 
ATOM     14  O   UNL     1      15.814 -12.592  26.416  1.00  0.00    -0.547 OA
ATOM     15  O   UNL     1      15.286 -11.276  24.613  1.00  0.00    -0.547 OA
ENDBRANCH  12  13
BRANCH  12  16
ATOM     16  O   UNL     1      18.107 -13.184  24.917  1.00  0.00    -0.387 OA
ATOM     17  H   UNL     1      17.894 -13.129  25.883  1.00  0.00     0.211 HD
ENDBRANCH  12  16
ENDBRANCH   1  12
TORSDOF 6
ENDMDL
MODEL 8
REMARK VINA RESULT:    -6.986      3.162      4.636
REMARK INTER + INTRA:          -9.014
REMARK INTER:                  -9.023
REMARK INTRA:                   0.008
REMARK UNBOUND:                -0.190
REMARK SMILES O=C([O-])[C@H](O)Cc1ccc(O)c(O)c1
REMARK SMILES IDX 6 1 7 2 8 3 9 4 10 5 14 6 12 7 11 8 13 10 4 12 2 13 1 14
REMARK SMILES IDX 3 15 5 16
REMARK H PARENT 11 9 13 11 5 17
ROOT
ATOM      1  C   UNL     1      15.868 -12.506  24.027  1.00  0.00     0.073 C 
ENDROOT
BRANCH   1   2
ATOM      2  C   UNL     1      16.263 -11.507  25.097  1.00  0.00    -0.041 A 
ATOM      3  C   UNL     1      15.941 -10.145  24.964  1.00  0.00     0.008 A 
ATOM      4  C   UNL     1      16.302  -9.229  25.956  1.00  0.00     0.050 A 
ATOM      5  C   UNL     1      16.972  -9.680  27.083  1.00  0.00     0.157 A 
ATOM      6  C   UNL     1      16.940 -11.943  26.245  1.00  0.00     0.054 A 
ATOM      7  C   UNL     1      17.284 -11.029  27.232  1.00  0.00     0.157 A 
BRANCH   5   8
ATOM      8  O   UNL     1      17.322  -8.793  28.063  1.00  0.00    -0.504 OA
ATOM      9  H   UNL     1      17.098  -7.925  27.672  1.00  0.00     0.293 HD
ENDBRANCH   5   8
BRANCH   7  10
ATOM     10  O   UNL     1      17.925 -11.424  28.375  1.00  0.00    -0.504 OA
ATOM     11  H   UNL     1      18.505 -12.165  28.117  1.00  0.00     0.293 HD
ENDBRANCH   7  10
ENDBRANCH   1   2
BRANCH   1  12
ATOM     12  C   UNL     1      16.981 -12.762  23.011  1.00  0.00     0.164 C 
BRANCH  12  13
ATOM     13  C   UNL     1      16.496 -13.704  21.865  1.00  0.00     0.070 C 
ATOM     14  O   UNL     1      16.576 -14.938  22.169  1.00  0.00    -0.547 OA
ATOM     15  O   UNL     1      16.102 -13.158  20.800  1.00  0.00    -0.547 OA
ENDBRANCH  12  13
BRANCH  12  16
ATOM     16  O   UNL     1      18.106 -13.392  23.691  1.00  0.00    -0.387 OA
ATOM     17  H   UNL     1      18.874 -12.987  23.214  1.00  0.00     0.211 HD
ENDBRANCH  12  16
ENDBRANCH   1  12
TORSDOF 6
ENDMDL
MODEL 9
REMARK VINA RESULT:    -6.975      1.102      1.277
REMARK INTER + INTRA:          -9.000
REMARK INTER:                  -8.763
REMARK INTRA:                  -0.236
REMARK UNBOUND:                -0.190
REMARK SMILES O=C([O-])[C@H](O)Cc1ccc(O)c(O)c1
REMARK SMILES IDX 6 1 7 2 8 3 9 4 10 5 14 6 12 7 11 8 13 10 4 12 2 13 1 14
REMARK SMILES IDX 3 15 5 16
REMARK H PARENT 11 9 13 11 5 17
ROOT
ATOM      1  C   UNL     1      16.555 -16.594  19.902  1.00  0.00     0.073 C 
ENDROOT
BRANCH   1   2
ATOM      2  C   UNL     1      16.545 -15.302  20.694  1.00  0.00    -0.041 A 
ATOM      3  C   UNL     1      16.011 -14.124  20.145  1.00  0.00     0.008 A 
ATOM      4  C   UNL     1      15.999 -12.937  20.883  1.00  0.00     0.050 A 
ATOM      5  C   UNL     1      16.509 -12.936  22.172  1.00  0.00     0.157 A 
ATOM      6  C   UNL     1      17.056 -15.279  22.000  1.00  0.00     0.054 A 
ATOM      7  C   UNL     1      17.029 -14.099  22.731  1.00  0.00     0.157 A 
BRANCH   5   8
ATOM      8  O   UNL     1      16.495 -11.781  22.904  1.00  0.00    -0.504 OA
ATOM      9  H   UNL     1      16.365 -11.086  22.228  1.00  0.00     0.293 HD
ENDBRANCH   5   8
BRANCH   7  10
ATOM     10  O   UNL     1      17.499 -14.048  24.017  1.00  0.00    -0.504 OA
ATOM     11  H   UNL     1      18.323 -13.527  23.982  1.00  0.00     0.293 HD
ENDBRANCH   7  10
ENDBRANCH   1   2
BRANCH   1  12
ATOM     12  C   UNL     1      17.241 -17.743  20.641  1.00  0.00     0.164 C 
BRANCH  12  13
ATOM     13  C   UNL     1      18.366 -18.385  19.772  1.00  0.00     0.070 C 
ATOM     14  O   UNL     1      18.228 -19.642  19.630  1.00  0.00    -0.547 OA
ATOM     15  O   UNL     1      19.261 -17.616  19.329  1.00  0.00    -0.547 OA
ENDBRANCH  12  13
BRANCH  12  16
ATOM     16  O   UNL     1      16.248 -18.763  20.952  1.00  0.00    -0.387 OA
ATOM     17  H   UNL     1      15.523 -18.217  21.350  1.00  0.00     0.211 HD
ENDBRANCH  12  16
ENDBRANCH   1  12
TORSDOF 6
ENDMDL
