MODEL 1
REMARK VINA RESULT:    -9.376      0.000      0.000
REMARK INTER + INTRA:         -17.308
REMARK INTER:                 -15.679
REMARK INTRA:                  -1.629
REMARK UNBOUND:                -1.629
REMARK SMILES C[C@@H]1O[C@@H](OC[C@H]2O[C@@H](OCC(O)c3ccc(O)c(O)c3)[C@H](O)[C@@H](O)[C@@H]2O)[C@H](O)[C@H](O)[C@H]1O
REMARK SMILES IDX 7 1 26 2 24 3 22 4 9 5 8 6 6 7 5 8 4 9 2 10 32 11 3 12 30 13
REMARK SMILES IDX 28 14 1 15 33 16 31 18 29 20 27 22 25 24 10 26 11 27 12 28
REMARK SMILES IDX 14 29 21 30 15 31 19 32 16 33 17 34 20 35 18 37 13 39 23 41
REMARK H PARENT 33 17 31 19 29 21 27 23 25 25 20 36 18 38 13 40 23 42
ROOT
ATOM      1  C   UNL     1      15.752 -20.727  20.652  1.00  0.00     0.178 C 
ATOM      2  C   UNL     1      14.327 -21.049  20.179  1.00  0.00     0.177 C 
ATOM      3  C   UNL     1      13.311 -20.347  21.078  1.00  0.00     0.179 C 
ATOM      4  C   UNL     1      13.615 -18.856  21.158  1.00  0.00     0.202 C 
ATOM      5  C   UNL     1      15.076 -18.647  21.599  1.00  0.00     0.282 C 
ATOM      6  O   UNL     1      15.962 -19.298  20.686  1.00  0.00    -0.341 OA
ENDROOT
BRANCH   1   7
ATOM      7  C   UNL     1      16.788 -21.361  19.710  1.00  0.00     0.198 C 
BRANCH   7   8
ATOM      8  O   UNL     1      17.625 -20.329  19.175  1.00  0.00    -0.347 OA
BRANCH   8   9
ATOM      9  C   UNL     1      17.510 -20.194  17.756  1.00  0.00     0.281 C 
ATOM     10  C   UNL     1      19.594 -19.025  17.560  1.00  0.00     0.150 C 
ATOM     11  C   UNL     1      18.902 -17.727  17.111  1.00  0.00     0.174 C 
ATOM     12  O   UNL     1      18.826 -20.169  17.180  1.00  0.00    -0.344 OA
ATOM     13  C   UNL     1      17.483 -17.678  17.695  1.00  0.00     0.179 C 
ATOM     14  C   UNL     1      16.701 -18.945  17.347  1.00  0.00     0.202 C 
ATOM     15  C   UNL     1      20.973 -19.178  16.928  1.00  0.00     0.041 C 
BRANCH  11  16
ATOM     16  O   UNL     1      19.631 -16.557  17.534  1.00  0.00    -0.388 OA
ATOM     17  H   UNL     1      19.108 -15.794  17.221  1.00  0.00     0.211 HD
ENDBRANCH  11  16
BRANCH  13  18
ATOM     18  O   UNL     1      16.780 -16.541  17.163  1.00  0.00    -0.387 OA
ATOM     19  H   UNL     1      16.005 -16.414  17.747  1.00  0.00     0.211 HD
ENDBRANCH  13  18
BRANCH  14  20
ATOM     20  O   UNL     1      16.416 -18.945  15.937  1.00  0.00    -0.385 OA
ATOM     21  H   UNL     1      17.028 -19.612  15.561  1.00  0.00     0.211 HD
ENDBRANCH  14  20
ENDBRANCH   8   9
ENDBRANCH   7   8
ENDBRANCH   1   7
BRANCH   2  22
ATOM     22  O   UNL     1      14.078 -22.455  20.203  1.00  0.00    -0.387 OA
ATOM     23  H   UNL     1      13.376 -22.604  19.535  1.00  0.00     0.211 HD
ENDBRANCH   2  22
BRANCH   3  24
ATOM     24  O   UNL     1      11.993 -20.563  20.553  1.00  0.00    -0.387 OA
ATOM     25  H   UNL     1      12.011 -20.180  19.652  1.00  0.00     0.211 HD
ENDBRANCH   3  24
BRANCH   5  26
ATOM     26  O   UNL     1      15.292 -17.233  21.582  1.00  0.00    -0.347 OA
BRANCH  26  27
ATOM     27  C   UNL     1      16.600 -16.828  21.160  1.00  0.00     0.200 C 
BRANCH  27  28
ATOM     28  C   UNL     1      16.711 -15.405  20.569  1.00  0.00     0.170 C 
BRANCH  28  29
ATOM     29  C   UNL     1      16.649 -14.224  21.521  1.00  0.00    -0.013 A 
ATOM     30  C   UNL     1      17.164 -14.388  22.822  1.00  0.00     0.056 A 
ATOM     31  C   UNL     1      16.076 -12.985  21.186  1.00  0.00     0.010 A 
ATOM     32  C   UNL     1      17.135 -13.337  23.731  1.00  0.00     0.157 A 
ATOM     33  C   UNL     1      16.030 -11.937  22.112  1.00  0.00     0.050 A 
ATOM     34  C   UNL     1      16.562 -12.123  23.378  1.00  0.00     0.157 A 
BRANCH  32  35
ATOM     35  O   UNL     1      17.687 -13.451  24.978  1.00  0.00    -0.504 OA
ATOM     36  H   UNL     1      18.585 -13.048  24.944  1.00  0.00     0.293 HD
ENDBRANCH  32  35
BRANCH  34  37
ATOM     37  O   UNL     1      16.525 -11.095  24.276  1.00  0.00    -0.504 OA
ATOM     38  H   UNL     1      17.426 -11.069  24.654  1.00  0.00     0.293 HD
ENDBRANCH  34  37
ENDBRANCH  28  29
BRANCH  28  39
ATOM     39  O   UNL     1      15.743 -15.238  19.529  1.00  0.00    -0.386 OA
ATOM     40  H   UNL     1      15.152 -14.509  19.818  1.00  0.00     0.211 HD
ENDBRANCH  28  39
ENDBRANCH  27  28
ENDBRANCH  26  27
ENDBRANCH   5  26
BRANCH   4  41
ATOM     41  O   UNL     1      12.694 -18.244  22.076  1.00  0.00    -0.385 OA
ATOM     42  H   UNL     1      11.879 -18.092  21.558  1.00  0.00     0.211 HD
ENDBRANCH   4  41
TORSDOF 16
ENDMDL
MODEL 2
REMARK VINA RESULT:    -9.084      2.072      5.998
REMARK INTER + INTRA:         -16.820
REMARK INTER:                 -15.677
REMARK INTRA:                  -1.142
REMARK UNBOUND:                -1.629
REMARK SMILES C[C@@H]1O[C@@H](OC[C@H]2O[C@@H](OCC(O)c3ccc(O)c(O)c3)[C@H](O)[C@@H](O)[C@@H]2O)[C@H](O)[C@H](O)[C@H]1O
REMARK SMILES IDX 7 1 26 2 24 3 22 4 9 5 8 6 6 7 5 8 4 9 2 10 32 11 3 12 30 13
REMARK SMILES IDX 28 14 1 15 33 16 31 18 29 20 27 22 25 24 10 26 11 27 12 28
REMARK SMILES IDX 14 29 21 30 15 31 19 32 16 33 17 34 20 35 18 37 13 39 23 41
REMARK H PARENT 33 17 31 19 29 21 27 23 25 25 20 36 18 38 13 40 23 42
ROOT
ATOM      1  C   UNL     1      15.054 -18.161  20.313  1.00  0.00     0.178 C 
ATOM      2  C   UNL     1      15.548 -18.984  19.115  1.00  0.00     0.177 C 
ATOM      3  C   UNL     1      15.736 -18.073  17.902  1.00  0.00     0.179 C 
ATOM      4  C   UNL     1      16.635 -16.896  18.258  1.00  0.00     0.202 C 
ATOM      5  C   UNL     1      16.073 -16.168  19.493  1.00  0.00     0.282 C 
ATOM      6  O   UNL     1      15.966 -17.076  20.592  1.00  0.00    -0.341 OA
ENDROOT
BRANCH   1   7
ATOM      7  C   UNL     1      14.936 -19.048  21.563  1.00  0.00     0.198 C 
BRANCH   7   8
ATOM      8  O   UNL     1      13.718 -18.729  22.247  1.00  0.00    -0.347 OA
BRANCH   8   9
ATOM      9  C   UNL     1      12.550 -19.008  21.471  1.00  0.00     0.281 C 
ATOM     10  C   UNL     1      11.061 -18.554  23.294  1.00  0.00     0.150 C 
ATOM     11  C   UNL     1      10.598 -20.018  23.370  1.00  0.00     0.174 C 
ATOM     12  O   UNL     1      11.459 -18.214  21.965  1.00  0.00    -0.344 OA
ATOM     13  C   UNL     1      11.719 -20.934  22.860  1.00  0.00     0.179 C 
ATOM     14  C   UNL     1      12.188 -20.508  21.469  1.00  0.00     0.202 C 
ATOM     15  C   UNL     1       9.951 -17.588  23.693  1.00  0.00     0.041 C 
BRANCH  11  16
ATOM     16  O   UNL     1      10.245 -20.400  24.715  1.00  0.00    -0.388 OA
ATOM     17  H   UNL     1       9.590 -19.739  25.012  1.00  0.00     0.211 HD
ENDBRANCH  11  16
BRANCH  13  18
ATOM     18  O   UNL     1      11.242 -22.290  22.790  1.00  0.00    -0.387 OA
ATOM     19  H   UNL     1      11.446 -22.595  21.883  1.00  0.00     0.211 HD
ENDBRANCH  13  18
BRANCH  14  20
ATOM     20  O   UNL     1      11.148 -20.795  20.517  1.00  0.00    -0.385 OA
ATOM     21  H   UNL     1      11.196 -20.059  19.871  1.00  0.00     0.211 HD
ENDBRANCH  14  20
ENDBRANCH   8   9
ENDBRANCH   7   8
ENDBRANCH   1   7
BRANCH   2  22
ATOM     22  O   UNL     1      14.624 -20.021  18.781  1.00  0.00    -0.387 OA
ATOM     23  H   UNL     1      13.748 -19.584  18.748  1.00  0.00     0.211 HD
ENDBRANCH   2  22
BRANCH   3  24
ATOM     24  O   UNL     1      16.308 -18.836  16.829  1.00  0.00    -0.387 OA
ATOM     25  H   UNL     1      16.988 -18.251  16.435  1.00  0.00     0.211 HD
ENDBRANCH   3  24
BRANCH   5  26
ATOM     26  O   UNL     1      17.007 -15.127  19.795  1.00  0.00    -0.347 OA
BRANCH  26  27
ATOM     27  C   UNL     1      16.484 -14.062  20.597  1.00  0.00     0.200 C 
BRANCH  27  28
ATOM     28  C   UNL     1      16.519 -14.285  22.125  1.00  0.00     0.170 C 
BRANCH  28  29
ATOM     29  C   UNL     1      16.512 -13.067  23.031  1.00  0.00    -0.013 A 
ATOM     30  C   UNL     1      17.193 -13.148  24.262  1.00  0.00     0.056 A 
ATOM     31  C   UNL     1      15.836 -11.874  22.725  1.00  0.00     0.010 A 
ATOM     32  C   UNL     1      17.221 -12.060  25.127  1.00  0.00     0.157 A 
ATOM     33  C   UNL     1      15.849 -10.790  23.609  1.00  0.00     0.050 A 
ATOM     34  C   UNL     1      16.544 -10.892  24.804  1.00  0.00     0.157 A 
BRANCH  32  35
ATOM     35  O   UNL     1      17.930 -12.092  26.297  1.00  0.00    -0.504 OA
ATOM     36  H   UNL     1      18.866 -12.302  26.073  1.00  0.00     0.293 HD
ENDBRANCH  32  35
BRANCH  34  37
ATOM     37  O   UNL     1      16.564  -9.829  25.659  1.00  0.00    -0.504 OA
ATOM     38  H   UNL     1      16.284 -10.202  26.519  1.00  0.00     0.293 HD
ENDBRANCH  34  37
ENDBRANCH  28  29
BRANCH  28  39
ATOM     39  O   UNL     1      17.620 -15.133  22.463  1.00  0.00    -0.386 OA
ATOM     40  H   UNL     1      17.859 -14.916  23.390  1.00  0.00     0.211 HD
ENDBRANCH  28  39
ENDBRANCH  27  28
ENDBRANCH  26  27
ENDBRANCH   5  26
BRANCH   4  41
ATOM     41  O   UNL     1      16.720 -16.019  17.123  1.00  0.00    -0.385 OA
ATOM     42  H   UNL     1      16.510 -15.129  17.470  1.00  0.00     0.211 HD
ENDBRANCH   4  41
TORSDOF 16
ENDMDL
MODEL 3
REMARK VINA RESULT:    -9.077      1.940      5.426
REMARK INTER + INTRA:         -16.809
REMARK INTER:                 -15.578
REMARK INTRA:                  -1.231
REMARK UNBOUND:                -1.629
REMARK SMILES C[C@@H]1O[C@@H](OC[C@H]2O[C@@H](OCC(O)c3ccc(O)c(O)c3)[C@H](O)[C@@H](O)[C@@H]2O)[C@H](O)[C@H](O)[C@H]1O
REMARK SMILES IDX 7 1 26 2 24 3 22 4 9 5 8 6 6 7 5 8 4 9 2 10 32 11 3 12 30 13
REMARK SMILES IDX 28 14 1 15 33 16 31 18 29 20 27 22 25 24 10 26 11 27 12 28
REMARK SMILES IDX 14 29 21 30 15 31 19 32 16 33 17 34 20 35 18 37 13 39 23 41
REMARK H PARENT 33 17 31 19 29 21 27 23 25 25 20 36 18 38 13 40 23 42
ROOT
ATOM      1  C   UNL     1      15.512 -18.801  20.038  1.00  0.00     0.178 C 
ATOM      2  C   UNL     1      15.874 -19.346  18.648  1.00  0.00     0.177 C 
ATOM      3  C   UNL     1      15.878 -18.208  17.630  1.00  0.00     0.179 C 
ATOM      4  C   UNL     1      16.780 -17.075  18.104  1.00  0.00     0.202 C 
ATOM      5  C   UNL     1      16.358 -16.635  19.518  1.00  0.00     0.282 C 
ATOM      6  O   UNL     1      16.421 -17.744  20.417  1.00  0.00    -0.341 OA
ENDROOT
BRANCH   1   7
ATOM      7  C   UNL     1      15.581 -19.920  21.090  1.00  0.00     0.198 C 
BRANCH   7   8
ATOM      8  O   UNL     1      14.395 -20.719  20.999  1.00  0.00    -0.347 OA
BRANCH   8   9
ATOM      9  C   UNL     1      13.588 -20.658  22.178  1.00  0.00     0.281 C 
ATOM     10  C   UNL     1      11.669 -21.581  21.076  1.00  0.00     0.150 C 
ATOM     11  C   UNL     1      10.873 -20.273  21.220  1.00  0.00     0.174 C 
ATOM     12  O   UNL     1      12.618 -21.718  22.135  1.00  0.00    -0.344 OA
ATOM     13  C   UNL     1      11.846 -19.087  21.267  1.00  0.00     0.179 C 
ATOM     14  C   UNL     1      12.904 -19.286  22.353  1.00  0.00     0.202 C 
ATOM     15  C   UNL     1      10.760 -22.804  21.125  1.00  0.00     0.041 C 
BRANCH  11  16
ATOM     16  O   UNL     1       9.947 -20.086  20.130  1.00  0.00    -0.388 OA
ATOM     17  H   UNL     1       9.296 -19.430  20.448  1.00  0.00     0.211 HD
ENDBRANCH  11  16
BRANCH  13  18
ATOM     18  O   UNL     1      11.121 -17.876  21.548  1.00  0.00    -0.387 OA
ATOM     19  H   UNL     1      11.790 -17.162  21.550  1.00  0.00     0.211 HD
ENDBRANCH  13  18
BRANCH  14  20
ATOM     20  O   UNL     1      12.276 -19.176  23.643  1.00  0.00    -0.385 OA
ATOM     21  H   UNL     1      11.319 -19.277  23.460  1.00  0.00     0.211 HD
ENDBRANCH  14  20
ENDBRANCH   8   9
ENDBRANCH   7   8
ENDBRANCH   1   7
BRANCH   2  22
ATOM     22  O   UNL     1      14.945 -20.347  18.227  1.00  0.00    -0.387 OA
ATOM     23  H   UNL     1      14.753 -20.875  19.029  1.00  0.00     0.211 HD
ENDBRANCH   2  22
BRANCH   3  24
ATOM     24  O   UNL     1      16.330 -18.714  16.365  1.00  0.00    -0.387 OA
ATOM     25  H   UNL     1      17.266 -18.435  16.298  1.00  0.00     0.211 HD
ENDBRANCH   3  24
BRANCH   5  26
ATOM     26  O   UNL     1      17.292 -15.623  19.908  1.00  0.00    -0.347 OA
BRANCH  26  27
ATOM     27  C   UNL     1      16.722 -14.516  20.617  1.00  0.00     0.200 C 
BRANCH  27  28
ATOM     28  C   UNL     1      16.714 -14.630  22.157  1.00  0.00     0.170 C 
BRANCH  28  29
ATOM     29  C   UNL     1      16.626 -13.352  22.972  1.00  0.00    -0.013 A 
ATOM     30  C   UNL     1      17.187 -13.346  24.264  1.00  0.00     0.056 A 
ATOM     31  C   UNL     1      15.984 -12.186  22.523  1.00  0.00     0.010 A 
ATOM     32  C   UNL     1      17.137 -12.202  25.052  1.00  0.00     0.157 A 
ATOM     33  C   UNL     1      15.918 -11.043  23.328  1.00  0.00     0.050 A 
ATOM     34  C   UNL     1      16.496 -11.061  24.587  1.00  0.00     0.157 A 
BRANCH  32  35
ATOM     35  O   UNL     1      17.731 -12.150  26.283  1.00  0.00    -0.504 OA
ATOM     36  H   UNL     1      17.546 -13.004  26.739  1.00  0.00     0.293 HD
ENDBRANCH  32  35
BRANCH  34  37
ATOM     37  O   UNL     1      16.438  -9.941  25.365  1.00  0.00    -0.504 OA
ATOM     38  H   UNL     1      16.941 -10.177  26.170  1.00  0.00     0.293 HD
ENDBRANCH  34  37
ENDBRANCH  28  29
BRANCH  28  39
ATOM     39  O   UNL     1      17.837 -15.402  22.589  1.00  0.00    -0.386 OA
ATOM     40  H   UNL     1      17.781 -15.445  23.568  1.00  0.00     0.211 HD
ENDBRANCH  28  39
ENDBRANCH  27  28
ENDBRANCH  26  27
ENDBRANCH   5  26
BRANCH   4  41
ATOM     41  O   UNL     1      16.693 -15.991  17.165  1.00  0.00    -0.385 OA
ATOM     42  H   UNL     1      17.041 -15.211  17.642  1.00  0.00     0.211 HD
ENDBRANCH   4  41
TORSDOF 16
ENDMDL
MODEL 4
REMARK VINA RESULT:    -8.977      2.529      4.139
REMARK INTER + INTRA:         -16.641
REMARK INTER:                 -16.130
REMARK INTRA:                  -0.512
REMARK UNBOUND:                -1.629
REMARK SMILES C[C@@H]1O[C@@H](OC[C@H]2O[C@@H](OCC(O)c3ccc(O)c(O)c3)[C@H](O)[C@@H](O)[C@@H]2O)[C@H](O)[C@H](O)[C@H]1O
REMARK SMILES IDX 7 1 26 2 24 3 22 4 9 5 8 6 6 7 5 8 4 9 2 10 32 11 3 12 30 13
REMARK SMILES IDX 28 14 1 15 33 16 31 18 29 20 27 22 25 24 10 26 11 27 12 28
REMARK SMILES IDX 14 29 21 30 15 31 19 32 16 33 17 34 20 35 18 37 13 39 23 41
REMARK H PARENT 33 17 31 19 29 21 27 23 25 25 20 36 18 38 13 40 23 42
ROOT
ATOM      1  C   UNL     1      19.184 -18.245  18.127  1.00  0.00     0.178 C 
ATOM      2  C   UNL     1      17.888 -18.886  17.610  1.00  0.00     0.177 C 
ATOM      3  C   UNL     1      17.087 -19.454  18.780  1.00  0.00     0.179 C 
ATOM      4  C   UNL     1      16.868 -18.383  19.842  1.00  0.00     0.202 C 
ATOM      5  C   UNL     1      18.222 -17.779  20.257  1.00  0.00     0.282 C 
ATOM      6  O   UNL     1      18.888 -17.235  19.115  1.00  0.00    -0.341 OA
ENDROOT
BRANCH   1   7
ATOM      7  C   UNL     1      19.963 -17.599  16.970  1.00  0.00     0.198 C 
BRANCH   7   8
ATOM      8  O   UNL     1      21.357 -17.895  17.124  1.00  0.00    -0.347 OA
BRANCH   8   9
ATOM      9  C   UNL     1      21.752 -19.093  16.450  1.00  0.00     0.281 C 
ATOM     10  C   UNL     1      24.090 -18.613  16.679  1.00  0.00     0.150 C 
ATOM     11  C   UNL     1      24.274 -18.443  15.162  1.00  0.00     0.174 C 
ATOM     12  O   UNL     1      23.024 -19.520  16.964  1.00  0.00    -0.344 OA
ATOM     13  C   UNL     1      22.950 -17.979  14.538  1.00  0.00     0.179 C 
ATOM     14  C   UNL     1      21.804 -18.917  14.918  1.00  0.00     0.202 C 
ATOM     15  C   UNL     1      25.345 -19.170  17.341  1.00  0.00     0.041 C 
BRANCH  11  16
ATOM     16  O   UNL     1      25.307 -17.487  14.850  1.00  0.00    -0.388 OA
ATOM     17  H   UNL     1      24.880 -16.811  14.290  1.00  0.00     0.211 HD
ENDBRANCH  11  16
BRANCH  13  18
ATOM     18  O   UNL     1      23.072 -17.958  13.104  1.00  0.00    -0.387 OA
ATOM     19  H   UNL     1      22.257 -18.379  12.764  1.00  0.00     0.211 HD
ENDBRANCH  13  18
BRANCH  14  20
ATOM     20  O   UNL     1      21.992 -20.178  14.252  1.00  0.00    -0.385 OA
ATOM     21  H   UNL     1      22.939 -20.390  14.388  1.00  0.00     0.211 HD
ENDBRANCH  14  20
ENDBRANCH   8   9
ENDBRANCH   7   8
ENDBRANCH   1   7
BRANCH   2  22
ATOM     22  O   UNL     1      18.163 -19.935  16.680  1.00  0.00    -0.387 OA
ATOM     23  H   UNL     1      18.998 -19.675  16.238  1.00  0.00     0.211 HD
ENDBRANCH   2  22
BRANCH   3  24
ATOM     24  O   UNL     1      15.829 -19.943  18.293  1.00  0.00    -0.387 OA
ATOM     25  H   UNL     1      16.058 -20.686  17.696  1.00  0.00     0.211 HD
ENDBRANCH   3  24
BRANCH   5  26
ATOM     26  O   UNL     1      17.919 -16.745  21.198  1.00  0.00    -0.347 OA
BRANCH  26  27
ATOM     27  C   UNL     1      16.634 -16.134  21.029  1.00  0.00     0.200 C 
BRANCH  27  28
ATOM     28  C   UNL     1      16.640 -14.630  20.679  1.00  0.00     0.170 C 
BRANCH  28  29
ATOM     29  C   UNL     1      16.601 -13.625  21.816  1.00  0.00    -0.013 A 
ATOM     30  C   UNL     1      17.172 -13.993  23.050  1.00  0.00     0.056 A 
ATOM     31  C   UNL     1      15.995 -12.361  21.716  1.00  0.00     0.010 A 
ATOM     32  C   UNL     1      17.165 -13.109  24.123  1.00  0.00     0.157 A 
ATOM     33  C   UNL     1      15.972 -11.484  22.806  1.00  0.00     0.050 A 
ATOM     34  C   UNL     1      16.559 -11.865  24.001  1.00  0.00     0.157 A 
BRANCH  32  35
ATOM     35  O   UNL     1      17.771 -13.417  25.311  1.00  0.00    -0.504 OA
ATOM     36  H   UNL     1      18.043 -12.571  25.735  1.00  0.00     0.293 HD
ENDBRANCH  32  35
BRANCH  34  37
ATOM     37  O   UNL     1      16.544 -11.003  25.059  1.00  0.00    -0.504 OA
ATOM     38  H   UNL     1      16.018 -11.464  25.743  1.00  0.00     0.293 HD
ENDBRANCH  34  37
ENDBRANCH  28  29
BRANCH  28  39
ATOM     39  O   UNL     1      15.591 -14.347  19.748  1.00  0.00    -0.386 OA
ATOM     40  H   UNL     1      14.976 -13.735  20.206  1.00  0.00     0.211 HD
ENDBRANCH  28  39
ENDBRANCH  27  28
ENDBRANCH  26  27
ENDBRANCH   5  26
BRANCH   4  41
ATOM     41  O   UNL     1      16.188 -18.973  20.961  1.00  0.00    -0.385 OA
ATOM     42  H   UNL     1      15.235 -18.898  20.751  1.00  0.00     0.211 HD
ENDBRANCH   4  41
TORSDOF 16
ENDMDL
MODEL 5
REMARK VINA RESULT:    -8.880      2.335      5.960
REMARK INTER + INTRA:         -16.478
REMARK INTER:                 -15.551
REMARK INTRA:                  -0.927
REMARK UNBOUND:                -1.629
REMARK SMILES C[C@@H]1O[C@@H](OC[C@H]2O[C@@H](OCC(O)c3ccc(O)c(O)c3)[C@H](O)[C@@H](O)[C@@H]2O)[C@H](O)[C@H](O)[C@H]1O
REMARK SMILES IDX 7 1 26 2 24 3 22 4 9 5 8 6 6 7 5 8 4 9 2 10 32 11 3 12 30 13
REMARK SMILES IDX 28 14 1 15 33 16 31 18 29 20 27 22 25 24 10 26 11 27 12 28
REMARK SMILES IDX 14 29 21 30 15 31 19 32 16 33 17 34 20 35 18 37 13 39 23 41
REMARK H PARENT 33 17 31 19 29 21 27 23 25 25 20 36 18 38 13 40 23 42
ROOT
ATOM      1  C   UNL     1      15.566 -17.632  20.397  1.00  0.00     0.178 C 
ATOM      2  C   UNL     1      16.092 -17.615  18.954  1.00  0.00     0.177 C 
ATOM      3  C   UNL     1      16.109 -16.182  18.426  1.00  0.00     0.179 C 
ATOM      4  C   UNL     1      16.881 -15.275  19.376  1.00  0.00     0.202 C 
ATOM      5  C   UNL     1      16.301 -15.401  20.798  1.00  0.00     0.282 C 
ATOM      6  O   UNL     1      16.359 -16.761  21.233  1.00  0.00    -0.341 OA
ENDROOT
BRANCH   1   7
ATOM      7  C   UNL     1      15.617 -19.057  20.972  1.00  0.00     0.198 C 
BRANCH   7   8
ATOM      8  O   UNL     1      14.779 -19.122  22.132  1.00  0.00    -0.347 OA
BRANCH   8   9
ATOM      9  C   UNL     1      13.427 -18.738  21.868  1.00  0.00     0.281 C 
ATOM     10  C   UNL     1      12.574 -19.927  23.767  1.00  0.00     0.150 C 
ATOM     11  C   UNL     1      11.804 -20.923  22.883  1.00  0.00     0.174 C 
ATOM     12  O   UNL     1      12.710 -18.665  23.112  1.00  0.00    -0.344 OA
ATOM     13  C   UNL     1      12.516 -21.059  21.530  1.00  0.00     0.179 C 
ATOM     14  C   UNL     1      12.726 -19.692  20.879  1.00  0.00     0.202 C 
ATOM     15  C   UNL     1      11.857 -19.674  25.089  1.00  0.00     0.041 C 
BRANCH  11  16
ATOM     16  O   UNL     1      11.703 -22.222  23.501  1.00  0.00    -0.388 OA
ATOM     17  H   UNL     1      10.914 -22.641  23.104  1.00  0.00     0.211 HD
ENDBRANCH  11  16
BRANCH  13  18
ATOM     18  O   UNL     1      11.725 -21.874  20.646  1.00  0.00    -0.387 OA
ATOM     19  H   UNL     1      11.910 -21.542  19.745  1.00  0.00     0.211 HD
ENDBRANCH  13  18
BRANCH  14  20
ATOM     20  O   UNL     1      11.450 -19.171  20.464  1.00  0.00    -0.385 OA
ATOM     21  H   UNL     1      10.822 -19.906  20.620  1.00  0.00     0.211 HD
ENDBRANCH  14  20
ENDBRANCH   8   9
ENDBRANCH   7   8
ENDBRANCH   1   7
BRANCH   2  22
ATOM     22  O   UNL     1      15.279 -18.419  18.097  1.00  0.00    -0.387 OA
ATOM     23  H   UNL     1      14.896 -17.795  17.446  1.00  0.00     0.211 HD
ENDBRANCH   2  22
BRANCH   3  24
ATOM     24  O   UNL     1      16.711 -16.171  17.122  1.00  0.00    -0.387 OA
ATOM     25  H   UNL     1      17.623 -15.845  17.265  1.00  0.00     0.211 HD
ENDBRANCH   3  24
BRANCH   5  26
ATOM     26  O   UNL     1      17.121 -14.575  21.630  1.00  0.00    -0.347 OA
BRANCH  26  27
ATOM     27  C   UNL     1      16.416 -13.859  22.651  1.00  0.00     0.200 C 
BRANCH  27  28
ATOM     28  C   UNL     1      16.719 -12.348  22.752  1.00  0.00     0.170 C 
BRANCH  28  29
ATOM     29  C   UNL     1      16.621 -11.683  24.112  1.00  0.00    -0.013 A 
ATOM     30  C   UNL     1      17.231 -12.319  25.211  1.00  0.00     0.056 A 
ATOM     31  C   UNL     1      15.925 -10.484  24.343  1.00  0.00     0.010 A 
ATOM     32  C   UNL     1      17.174 -11.750  26.478  1.00  0.00     0.157 A 
ATOM     33  C   UNL     1      15.852  -9.927  25.625  1.00  0.00     0.050 A 
ATOM     34  C   UNL     1      16.479 -10.566  26.683  1.00  0.00     0.157 A 
BRANCH  32  35
ATOM     35  O   UNL     1      17.814 -12.315  27.548  1.00  0.00    -0.504 OA
ATOM     36  H   UNL     1      17.879 -13.283  27.379  1.00  0.00     0.293 HD
ENDBRANCH  32  35
BRANCH  34  37
ATOM     37  O   UNL     1      16.415 -10.015  27.930  1.00  0.00    -0.504 OA
ATOM     38  H   UNL     1      15.464 -10.037  28.158  1.00  0.00     0.293 HD
ENDBRANCH  34  37
ENDBRANCH  28  29
BRANCH  28  39
ATOM     39  O   UNL     1      15.919 -11.632  21.805  1.00  0.00    -0.386 OA
ATOM     40  H   UNL     1      16.542 -11.092  21.273  1.00  0.00     0.211 HD
ENDBRANCH  28  39
ENDBRANCH  27  28
ENDBRANCH  26  27
ENDBRANCH   5  26
BRANCH   4  41
ATOM     41  O   UNL     1      16.805 -13.925  18.893  1.00  0.00    -0.385 OA
ATOM     42  H   UNL     1      15.888 -13.638  19.076  1.00  0.00     0.211 HD
ENDBRANCH   4  41
TORSDOF 16
ENDMDL
MODEL 6
REMARK VINA RESULT:    -8.653      3.154      5.250
REMARK INTER + INTRA:         -16.099
REMARK INTER:                 -14.892
REMARK INTRA:                  -1.207
REMARK UNBOUND:                -1.629
REMARK SMILES C[C@@H]1O[C@@H](OC[C@H]2O[C@@H](OCC(O)c3ccc(O)c(O)c3)[C@H](O)[C@@H](O)[C@@H]2O)[C@H](O)[C@H](O)[C@H]1O
REMARK SMILES IDX 7 1 26 2 24 3 22 4 9 5 8 6 6 7 5 8 4 9 2 10 32 11 3 12 30 13
REMARK SMILES IDX 28 14 1 15 33 16 31 18 29 20 27 22 25 24 10 26 11 27 12 28
REMARK SMILES IDX 14 29 21 30 15 31 19 32 16 33 17 34 20 35 18 37 13 39 23 41
REMARK H PARENT 33 17 31 19 29 21 27 23 25 25 20 36 18 38 13 40 23 42
ROOT
ATOM      1  C   UNL     1      19.991 -18.697  17.325  1.00  0.00     0.178 C 
ATOM      2  C   UNL     1      18.948 -19.787  17.038  1.00  0.00     0.177 C 
ATOM      3  C   UNL     1      18.385 -20.323  18.353  1.00  0.00     0.179 C 
ATOM      4  C   UNL     1      17.864 -19.179  19.213  1.00  0.00     0.202 C 
ATOM      5  C   UNL     1      18.972 -18.126  19.402  1.00  0.00     0.282 C 
ATOM      6  O   UNL     1      19.415 -17.646  18.131  1.00  0.00    -0.341 OA
ENDROOT
BRANCH   1   7
ATOM      7  C   UNL     1      20.511 -18.090  16.011  1.00  0.00     0.198 C 
BRANCH   7   8
ATOM      8  O   UNL     1      21.726 -18.753  15.640  1.00  0.00    -0.347 OA
BRANCH   8   9
ATOM      9  C   UNL     1      22.713 -17.860  15.116  1.00  0.00     0.281 C 
ATOM     10  C   UNL     1      23.134 -19.234  13.197  1.00  0.00     0.150 C 
ATOM     11  C   UNL     1      24.568 -19.552  13.654  1.00  0.00     0.174 C 
ATOM     12  O   UNL     1      22.716 -17.957  13.683  1.00  0.00    -0.344 OA
ATOM     13  C   UNL     1      24.643 -19.474  15.186  1.00  0.00     0.179 C 
ATOM     14  C   UNL     1      24.118 -18.131  15.694  1.00  0.00     0.202 C 
ATOM     15  C   UNL     1      23.021 -19.197  11.677  1.00  0.00     0.041 C 
BRANCH  11  16
ATOM     16  O   UNL     1      24.990 -20.861  13.223  1.00  0.00    -0.388 OA
ATOM     17  H   UNL     1      25.928 -20.763  12.967  1.00  0.00     0.211 HD
ENDBRANCH  11  16
BRANCH  13  18
ATOM     18  O   UNL     1      26.009 -19.625  15.612  1.00  0.00    -0.387 OA
ATOM     19  H   UNL     1      26.507 -19.890  14.812  1.00  0.00     0.211 HD
ENDBRANCH  13  18
BRANCH  14  20
ATOM     20  O   UNL     1      25.045 -17.095  15.323  1.00  0.00    -0.385 OA
ATOM     21  H   UNL     1      25.059 -17.117  14.343  1.00  0.00     0.211 HD
ENDBRANCH  14  20
ENDBRANCH   8   9
ENDBRANCH   7   8
ENDBRANCH   1   7
BRANCH   2  22
ATOM     22  O   UNL     1      19.517 -20.868  16.298  1.00  0.00    -0.387 OA
ATOM     23  H   UNL     1      20.456 -20.903  16.576  1.00  0.00     0.211 HD
ENDBRANCH   2  22
BRANCH   3  24
ATOM     24  O   UNL     1      17.331 -21.255  18.064  1.00  0.00    -0.387 OA
ATOM     25  H   UNL     1      16.653 -20.733  17.588  1.00  0.00     0.211 HD
ENDBRANCH   3  24
BRANCH   5  26
ATOM     26  O   UNL     1      18.381 -17.065  20.159  1.00  0.00    -0.347 OA
BRANCH  26  27
ATOM     27  C   UNL     1      17.312 -16.377  19.498  1.00  0.00     0.200 C 
BRANCH  27  28
ATOM     28  C   UNL     1      16.139 -15.928  20.396  1.00  0.00     0.170 C 
BRANCH  28  29
ATOM     29  C   UNL     1      16.309 -14.670  21.228  1.00  0.00    -0.013 A 
ATOM     30  C   UNL     1      16.969 -14.775  22.468  1.00  0.00     0.056 A 
ATOM     31  C   UNL     1      15.813 -13.412  20.846  1.00  0.00     0.010 A 
ATOM     32  C   UNL     1      17.154 -13.653  23.268  1.00  0.00     0.157 A 
ATOM     33  C   UNL     1      15.984 -12.290  21.664  1.00  0.00     0.050 A 
ATOM     34  C   UNL     1      16.654 -12.421  22.870  1.00  0.00     0.157 A 
BRANCH  32  35
ATOM     35  O   UNL     1      17.848 -13.717  24.445  1.00  0.00    -0.504 OA
ATOM     36  H   UNL     1      17.210 -13.960  25.155  1.00  0.00     0.293 HD
ENDBRANCH  32  35
BRANCH  34  37
ATOM     37  O   UNL     1      16.827 -11.322  23.661  1.00  0.00    -0.504 OA
ATOM     38  H   UNL     1      16.327 -11.527  24.476  1.00  0.00     0.293 HD
ENDBRANCH  34  37
ENDBRANCH  28  29
BRANCH  28  39
ATOM     39  O   UNL     1      15.733 -17.012  21.236  1.00  0.00    -0.386 OA
ATOM     40  H   UNL     1      15.538 -17.765  20.638  1.00  0.00     0.211 HD
ENDBRANCH  28  39
ENDBRANCH  27  28
ENDBRANCH  26  27
ENDBRANCH   5  26
BRANCH   4  41
ATOM     41  O   UNL     1      17.421 -19.710  20.473  1.00  0.00    -0.385 OA
ATOM     42  H   UNL     1      17.265 -18.929  21.040  1.00  0.00     0.211 HD
ENDBRANCH   4  41
TORSDOF 16
ENDMDL
MODEL 7
REMARK VINA RESULT:    -8.643      1.539      2.135
REMARK INTER + INTRA:         -16.083
REMARK INTER:                 -15.020
REMARK INTRA:                  -1.063
REMARK UNBOUND:                -1.629
REMARK SMILES C[C@@H]1O[C@@H](OC[C@H]2O[C@@H](OCC(O)c3ccc(O)c(O)c3)[C@H](O)[C@@H](O)[C@@H]2O)[C@H](O)[C@H](O)[C@H]1O
REMARK SMILES IDX 7 1 26 2 24 3 22 4 9 5 8 6 6 7 5 8 4 9 2 10 32 11 3 12 30 13
REMARK SMILES IDX 28 14 1 15 33 16 31 18 29 20 27 22 25 24 10 26 11 27 12 28
REMARK SMILES IDX 14 29 21 30 15 31 19 32 16 33 17 34 20 35 18 37 13 39 23 41
REMARK H PARENT 33 17 31 19 29 21 27 23 25 25 20 36 18 38 13 40 23 42
ROOT
ATOM      1  C   UNL     1      17.174 -19.769  20.366  1.00  0.00     0.178 C 
ATOM      2  C   UNL     1      15.952 -20.543  19.851  1.00  0.00     0.177 C 
ATOM      3  C   UNL     1      14.730 -20.210  20.705  1.00  0.00     0.179 C 
ATOM      4  C   UNL     1      14.525 -18.701  20.772  1.00  0.00     0.202 C 
ATOM      5  C   UNL     1      15.820 -18.024  21.259  1.00  0.00     0.282 C 
ATOM      6  O   UNL     1      16.903 -18.351  20.386  1.00  0.00    -0.341 OA
ENDROOT
BRANCH   1   7
ATOM      7  C   UNL     1      18.395 -20.032  19.469  1.00  0.00     0.198 C 
BRANCH   7   8
ATOM      8  O   UNL     1      17.946 -20.280  18.132  1.00  0.00    -0.347 OA
BRANCH   8   9
ATOM      9  C   UNL     1      17.987 -19.116  17.302  1.00  0.00     0.281 C 
ATOM     10  C   UNL     1      19.017 -20.283  15.479  1.00  0.00     0.150 C 
ATOM     11  C   UNL     1      20.318 -19.473  15.606  1.00  0.00     0.174 C 
ATOM     12  O   UNL     1      17.896 -19.519  15.926  1.00  0.00    -0.344 OA
ATOM     13  C   UNL     1      20.489 -19.010  17.060  1.00  0.00     0.179 C 
ATOM     14  C   UNL     1      19.248 -18.262  17.548  1.00  0.00     0.202 C 
ATOM     15  C   UNL     1      18.741 -20.686  14.035  1.00  0.00     0.041 C 
BRANCH  11  16
ATOM     16  O   UNL     1      21.471 -20.245  15.214  1.00  0.00    -0.388 OA
ATOM     17  H   UNL     1      21.146 -21.159  15.094  1.00  0.00     0.211 HD
ENDBRANCH  11  16
BRANCH  13  18
ATOM     18  O   UNL     1      21.625 -18.131  17.157  1.00  0.00    -0.387 OA
ATOM     19  H   UNL     1      22.411 -18.704  17.058  1.00  0.00     0.211 HD
ENDBRANCH  13  18
BRANCH  14  20
ATOM     20  O   UNL     1      19.165 -16.998  16.867  1.00  0.00    -0.385 OA
ATOM     21  H   UNL     1      19.027 -17.234  15.926  1.00  0.00     0.211 HD
ENDBRANCH  14  20
ENDBRANCH   8   9
ENDBRANCH   7   8
ENDBRANCH   1   7
BRANCH   2  22
ATOM     22  O   UNL     1      16.177 -21.953  19.888  1.00  0.00    -0.387 OA
ATOM     23  H   UNL     1      15.341 -22.356  19.572  1.00  0.00     0.211 HD
ENDBRANCH   2  22
BRANCH   3  24
ATOM     24  O   UNL     1      13.575 -20.849  20.139  1.00  0.00    -0.387 OA
ATOM     25  H   UNL     1      13.896 -21.271  19.316  1.00  0.00     0.211 HD
ENDBRANCH   3  24
BRANCH   5  26
ATOM     26  O   UNL     1      15.561 -16.616  21.228  1.00  0.00    -0.347 OA
BRANCH  26  27
ATOM     27  C   UNL     1      16.719 -15.795  21.034  1.00  0.00     0.200 C 
BRANCH  27  28
ATOM     28  C   UNL     1      16.451 -14.294  20.786  1.00  0.00     0.170 C 
BRANCH  28  29
ATOM     29  C   UNL     1      16.507 -13.347  21.971  1.00  0.00    -0.013 A 
ATOM     30  C   UNL     1      17.113 -13.801  23.159  1.00  0.00     0.056 A 
ATOM     31  C   UNL     1      15.956 -12.055  21.959  1.00  0.00     0.010 A 
ATOM     32  C   UNL     1      17.193 -12.972  24.272  1.00  0.00     0.157 A 
ATOM     33  C   UNL     1      16.020 -11.232  23.090  1.00  0.00     0.050 A 
ATOM     34  C   UNL     1      16.640 -11.699  24.238  1.00  0.00     0.157 A 
BRANCH  32  35
ATOM     35  O   UNL     1      17.835 -13.365  25.415  1.00  0.00    -0.504 OA
ATOM     36  H   UNL     1      17.188 -13.869  25.961  1.00  0.00     0.293 HD
ENDBRANCH  32  35
BRANCH  34  37
ATOM     37  O   UNL     1      16.710 -10.890  25.335  1.00  0.00    -0.504 OA
ATOM     38  H   UNL     1      17.405 -10.238  25.114  1.00  0.00     0.293 HD
ENDBRANCH  34  37
ENDBRANCH  28  29
BRANCH  28  39
ATOM     39  O   UNL     1      15.207 -14.134  20.098  1.00  0.00    -0.386 OA
ATOM     40  H   UNL     1      15.413 -14.198  19.140  1.00  0.00     0.211 HD
ENDBRANCH  28  39
ENDBRANCH  27  28
ENDBRANCH  26  27
ENDBRANCH   5  26
BRANCH   4  41
ATOM     41  O   UNL     1      13.422 -18.422  21.650  1.00  0.00    -0.385 OA
ATOM     42  H   UNL     1      12.638 -18.368  21.067  1.00  0.00     0.211 HD
ENDBRANCH   4  41
TORSDOF 16
ENDMDL
MODEL 8
REMARK VINA RESULT:    -8.571      2.098      3.645
REMARK INTER + INTRA:         -15.962
REMARK INTER:                 -14.621
REMARK INTRA:                  -1.342
REMARK UNBOUND:                -1.629
REMARK SMILES C[C@@H]1O[C@@H](OC[C@H]2O[C@@H](OCC(O)c3ccc(O)c(O)c3)[C@H](O)[C@@H](O)[C@@H]2O)[C@H](O)[C@H](O)[C@H]1O
REMARK SMILES IDX 7 1 26 2 24 3 22 4 9 5 8 6 6 7 5 8 4 9 2 10 32 11 3 12 30 13
REMARK SMILES IDX 28 14 1 15 33 16 31 18 29 20 27 22 25 24 10 26 11 27 12 28
REMARK SMILES IDX 14 29 21 30 15 31 19 32 16 33 17 34 20 35 18 37 13 39 23 41
REMARK H PARENT 33 17 31 19 29 21 27 23 25 25 20 36 18 38 13 40 23 42
ROOT
ATOM      1  C   UNL     1      17.993 -17.851  18.786  1.00  0.00     0.178 C 
ATOM      2  C   UNL     1      16.810 -18.459  18.017  1.00  0.00     0.177 C 
ATOM      3  C   UNL     1      15.817 -19.078  18.999  1.00  0.00     0.179 C 
ATOM      4  C   UNL     1      15.409 -18.058  20.055  1.00  0.00     0.202 C 
ATOM      5  C   UNL     1      16.668 -17.483  20.733  1.00  0.00     0.282 C 
ATOM      6  O   UNL     1      17.523 -16.888  19.755  1.00  0.00    -0.341 OA
ENDROOT
BRANCH   1   7
ATOM      7  C   UNL     1      18.963 -17.155  17.819  1.00  0.00     0.198 C 
BRANCH   7   8
ATOM      8  O   UNL     1      20.042 -18.048  17.517  1.00  0.00    -0.347 OA
BRANCH   8   9
ATOM      9  C   UNL     1      20.450 -17.990  16.148  1.00  0.00     0.281 C 
ATOM     10  C   UNL     1      20.474 -20.376  15.912  1.00  0.00     0.150 C 
ATOM     11  C   UNL     1      21.998 -20.410  15.715  1.00  0.00     0.174 C 
ATOM     12  O   UNL     1      19.929 -19.137  15.457  1.00  0.00    -0.344 OA
ATOM     13  C   UNL     1      22.632 -19.212  16.435  1.00  0.00     0.179 C 
ATOM     14  C   UNL     1      21.983 -17.899  15.994  1.00  0.00     0.202 C 
ATOM     15  C   UNL     1      19.777 -21.488  15.135  1.00  0.00     0.041 C 
BRANCH  11  16
ATOM     16  O   UNL     1      22.577 -21.630  16.220  1.00  0.00    -0.388 OA
ATOM     17  H   UNL     1      23.430 -21.729  15.754  1.00  0.00     0.211 HD
ENDBRANCH  11  16
BRANCH  13  18
ATOM     18  O   UNL     1      24.038 -19.154  16.133  1.00  0.00    -0.387 OA
ATOM     19  H   UNL     1      24.451 -19.864  16.665  1.00  0.00     0.211 HD
ENDBRANCH  13  18
BRANCH  14  20
ATOM     20  O   UNL     1      22.356 -17.628  14.631  1.00  0.00    -0.385 OA
ATOM     21  H   UNL     1      23.232 -17.194  14.698  1.00  0.00     0.211 HD
ENDBRANCH  14  20
ENDBRANCH   8   9
ENDBRANCH   7   8
ENDBRANCH   1   7
BRANCH   2  22
ATOM     22  O   UNL     1      17.249 -19.464  17.101  1.00  0.00    -0.387 OA
ATOM     23  H   UNL     1      16.977 -20.315  17.503  1.00  0.00     0.211 HD
ENDBRANCH   2  22
BRANCH   3  24
ATOM     24  O   UNL     1      14.666 -19.536  18.273  1.00  0.00    -0.387 OA
ATOM     25  H   UNL     1      13.942 -18.930  18.534  1.00  0.00     0.211 HD
ENDBRANCH   3  24
BRANCH   5  26
ATOM     26  O   UNL     1      16.199 -16.494  21.655  1.00  0.00    -0.347 OA
BRANCH  26  27
ATOM     27  C   UNL     1      17.141 -15.458  21.957  1.00  0.00     0.200 C 
BRANCH  27  28
ATOM     28  C   UNL     1      16.702 -14.020  21.607  1.00  0.00     0.170 C 
BRANCH  28  29
ATOM     29  C   UNL     1      16.663 -12.988  22.720  1.00  0.00    -0.013 A 
ATOM     30  C   UNL     1      17.323 -13.285  23.928  1.00  0.00     0.056 A 
ATOM     31  C   UNL     1      15.974 -11.766  22.624  1.00  0.00     0.010 A 
ATOM     32  C   UNL     1      17.321 -12.373  24.978  1.00  0.00     0.157 A 
ATOM     33  C   UNL     1      15.957 -10.862  23.691  1.00  0.00     0.050 A 
ATOM     34  C   UNL     1      16.632 -11.173  24.860  1.00  0.00     0.157 A 
BRANCH  32  35
ATOM     35  O   UNL     1      18.009 -12.610  26.137  1.00  0.00    -0.504 OA
ATOM     36  H   UNL     1      18.947 -12.789  25.895  1.00  0.00     0.293 HD
ENDBRANCH  32  35
BRANCH  34  37
ATOM     37  O   UNL     1      16.622 -10.284  25.896  1.00  0.00    -0.504 OA
ATOM     38  H   UNL     1      16.927  -9.444  25.499  1.00  0.00     0.293 HD
ENDBRANCH  34  37
ENDBRANCH  28  29
BRANCH  28  39
ATOM     39  O   UNL     1      15.440 -14.051  20.934  1.00  0.00    -0.386 OA
ATOM     40  H   UNL     1      15.150 -14.989  20.939  1.00  0.00     0.211 HD
ENDBRANCH  28  39
ENDBRANCH  27  28
ENDBRANCH  26  27
ENDBRANCH   5  26
BRANCH   4  41
ATOM     41  O   UNL     1      14.543 -18.697  21.007  1.00  0.00    -0.385 OA
ATOM     42  H   UNL     1      13.977 -19.294  20.477  1.00  0.00     0.211 HD
ENDBRANCH   4  41
TORSDOF 16
ENDMDL
MODEL 9
REMARK VINA RESULT:    -8.492      2.310      3.950
REMARK INTER + INTRA:         -15.830
REMARK INTER:                 -14.443
REMARK INTRA:                  -1.387
REMARK UNBOUND:                -1.629
REMARK SMILES C[C@@H]1O[C@@H](OC[C@H]2O[C@@H](OCC(O)c3ccc(O)c(O)c3)[C@H](O)[C@@H](O)[C@@H]2O)[C@H](O)[C@H](O)[C@H]1O
REMARK SMILES IDX 7 1 26 2 24 3 22 4 9 5 8 6 6 7 5 8 4 9 2 10 32 11 3 12 30 13
REMARK SMILES IDX 28 14 1 15 33 16 31 18 29 20 27 22 25 24 10 26 11 27 12 28
REMARK SMILES IDX 14 29 21 30 15 31 19 32 16 33 17 34 20 35 18 37 13 39 23 41
REMARK H PARENT 33 17 31 19 29 21 27 23 25 25 20 36 18 38 13 40 23 42
ROOT
ATOM      1  C   UNL     1      16.258 -17.982  19.943  1.00  0.00     0.178 C 
ATOM      2  C   UNL     1      16.442 -17.531  18.487  1.00  0.00     0.177 C 
ATOM      3  C   UNL     1      16.089 -16.051  18.355  1.00  0.00     0.179 C 
ATOM      4  C   UNL     1      16.878 -15.225  19.363  1.00  0.00     0.202 C 
ATOM      5  C   UNL     1      16.656 -15.787  20.780  1.00  0.00     0.282 C 
ATOM      6  O   UNL     1      17.047 -17.160  20.830  1.00  0.00    -0.341 OA
ENDROOT
BRANCH   1   7
ATOM      7  C   UNL     1      16.684 -19.450  20.110  1.00  0.00     0.198 C 
BRANCH   7   8
ATOM      8  O   UNL     1      17.368 -19.874  18.924  1.00  0.00    -0.347 OA
BRANCH   8   9
ATOM      9  C   UNL     1      18.758 -20.132  19.142  1.00  0.00     0.281 C 
ATOM     10  C   UNL     1      19.417 -19.058  17.103  1.00  0.00     0.150 C 
ATOM     11  C   UNL     1      19.910 -20.378  16.486  1.00  0.00     0.174 C 
ATOM     12  O   UNL     1      19.529 -19.087  18.526  1.00  0.00    -0.344 OA
ATOM     13  C   UNL     1      19.123 -21.548  17.094  1.00  0.00     0.179 C 
ATOM     14  C   UNL     1      19.188 -21.520  18.621  1.00  0.00     0.202 C 
ATOM     15  C   UNL     1      20.231 -17.865  16.611  1.00  0.00     0.041 C 
BRANCH  11  16
ATOM     16  O   UNL     1      19.753 -20.392  15.053  1.00  0.00    -0.388 OA
ATOM     17  H   UNL     1      20.253 -19.618  14.726  1.00  0.00     0.211 HD
ENDBRANCH  11  16
BRANCH  13  18
ATOM     18  O   UNL     1      19.677 -22.794  16.632  1.00  0.00    -0.387 OA
ATOM     19  H   UNL     1      20.578 -22.581  16.316  1.00  0.00     0.211 HD
ENDBRANCH  13  18
BRANCH  14  20
ATOM     20  O   UNL     1      20.526 -21.843  19.038  1.00  0.00    -0.385 OA
ATOM     21  H   UNL     1      21.089 -21.166  18.609  1.00  0.00     0.211 HD
ENDBRANCH  14  20
ENDBRANCH   8   9
ENDBRANCH   7   8
ENDBRANCH   1   7
BRANCH   2  22
ATOM     22  O   UNL     1      15.616 -18.289  17.601  1.00  0.00    -0.387 OA
ATOM     23  H   UNL     1      14.913 -18.670  18.166  1.00  0.00     0.211 HD
ENDBRANCH   2  22
BRANCH   3  24
ATOM     24  O   UNL     1      16.378 -15.619  17.016  1.00  0.00    -0.387 OA
ATOM     25  H   UNL     1      16.680 -16.424  16.548  1.00  0.00     0.211 HD
ENDBRANCH   3  24
BRANCH   5  26
ATOM     26  O   UNL     1      17.480 -15.001  21.647  1.00  0.00    -0.347 OA
BRANCH  26  27
ATOM     27  C   UNL     1      16.770 -14.275  22.658  1.00  0.00     0.200 C 
BRANCH  27  28
ATOM     28  C   UNL     1      16.872 -12.736  22.585  1.00  0.00     0.170 C 
BRANCH  28  29
ATOM     29  C   UNL     1      16.674 -11.939  23.862  1.00  0.00    -0.013 A 
ATOM     30  C   UNL     1      17.273 -12.416  25.044  1.00  0.00     0.056 A 
ATOM     31  C   UNL     1      15.897 -10.771  23.936  1.00  0.00     0.010 A 
ATOM     32  C   UNL     1      17.126 -11.723  26.240  1.00  0.00     0.157 A 
ATOM     33  C   UNL     1      15.735 -10.088  25.147  1.00  0.00     0.050 A 
ATOM     34  C   UNL     1      16.352 -10.570  26.290  1.00  0.00     0.157 A 
BRANCH  32  35
ATOM     35  O   UNL     1      17.751 -12.129  27.387  1.00  0.00    -0.504 OA
ATOM     36  H   UNL     1      18.391 -12.837  27.143  1.00  0.00     0.293 HD
ENDBRANCH  32  35
BRANCH  34  37
ATOM     37  O   UNL     1      16.200  -9.897  27.467  1.00  0.00    -0.504 OA
ATOM     38  H   UNL     1      15.959 -10.589  28.115  1.00  0.00     0.293 HD
ENDBRANCH  34  37
ENDBRANCH  28  29
BRANCH  28  39
ATOM     39  O   UNL     1      15.995 -12.243  21.567  1.00  0.00    -0.386 OA
ATOM     40  H   UNL     1      15.769 -13.014  21.003  1.00  0.00     0.211 HD
ENDBRANCH  28  39
ENDBRANCH  27  28
ENDBRANCH  26  27
ENDBRANCH   5  26
BRANCH   4  41
ATOM     41  O   UNL     1      16.459 -13.854  19.268  1.00  0.00    -0.385 OA
ATOM     42  H   UNL     1      16.084 -13.639  20.145  1.00  0.00     0.211 HD
ENDBRANCH   4  41
TORSDOF 16
ENDMDL
