MODEL 1
REMARK VINA RESULT:    -9.361      0.000      0.000
REMARK INTER + INTRA:         -17.279
REMARK INTER:                 -15.655
REMARK INTRA:                  -1.625
REMARK UNBOUND:                -1.625
REMARK SMILES C[C@@H]1O[C@@H](OC[C@H]2O[C@@H](OCC(O)c3ccc(O)c(O)c3)[C@H](O)[C@@H](O)[C@@H]2O)[C@H](O)[C@H](O)[C@H]1O
REMARK SMILES IDX 7 1 26 2 24 3 22 4 9 5 8 6 6 7 5 8 4 9 2 10 32 11 3 12 30 13
REMARK SMILES IDX 28 14 1 15 33 16 31 18 29 20 27 22 25 24 10 26 11 27 12 28
REMARK SMILES IDX 14 29 21 30 15 31 19 32 16 33 17 34 20 35 18 37 13 39 23 41
REMARK H PARENT 33 17 31 19 29 21 27 23 25 25 20 36 18 38 13 40 23 42
ROOT
ATOM      1  C   UNL     1      15.779 -20.770  20.629  1.00  0.00     0.178 C 
ATOM      2  C   UNL     1      14.354 -21.101  20.162  1.00  0.00     0.177 C 
ATOM      3  C   UNL     1      13.337 -20.411  21.070  1.00  0.00     0.179 C 
ATOM      4  C   UNL     1      13.630 -18.917  21.154  1.00  0.00     0.202 C 
ATOM      5  C   UNL     1      15.091 -18.699  21.588  1.00  0.00     0.282 C 
ATOM      6  O   UNL     1      15.977 -19.340  20.668  1.00  0.00    -0.341 OA
ENDROOT
BRANCH   1   7
ATOM      7  C   UNL     1      16.815 -21.392  19.679  1.00  0.00     0.198 C 
BRANCH   7   8
ATOM      8  O   UNL     1      17.646 -20.353  19.150  1.00  0.00    -0.347 OA
BRANCH   8   9
ATOM      9  C   UNL     1      17.528 -20.209  17.732  1.00  0.00     0.281 C 
ATOM     10  C   UNL     1      19.608 -19.032  17.540  1.00  0.00     0.150 C 
ATOM     11  C   UNL     1      18.911 -17.733  17.101  1.00  0.00     0.174 C 
ATOM     12  O   UNL     1      18.844 -20.175  17.154  1.00  0.00    -0.344 OA
ATOM     13  C   UNL     1      17.493 -17.693  17.688  1.00  0.00     0.179 C 
ATOM     14  C   UNL     1      16.715 -18.960  17.332  1.00  0.00     0.202 C 
ATOM     15  C   UNL     1      20.987 -19.176  16.905  1.00  0.00     0.041 C 
BRANCH  11  16
ATOM     16  O   UNL     1      19.637 -16.564  17.530  1.00  0.00    -0.388 OA
ATOM     17  H   UNL     1      19.001 -15.824  17.474  1.00  0.00     0.211 HD
ENDBRANCH  11  16
BRANCH  13  18
ATOM     18  O   UNL     1      16.785 -16.555  17.164  1.00  0.00    -0.387 OA
ATOM     19  H   UNL     1      17.462 -15.861  17.031  1.00  0.00     0.211 HD
ENDBRANCH  13  18
BRANCH  14  20
ATOM     20  O   UNL     1      16.428 -18.952  15.923  1.00  0.00    -0.385 OA
ATOM     21  H   UNL     1      16.585 -18.025  15.644  1.00  0.00     0.211 HD
ENDBRANCH  14  20
ENDBRANCH   8   9
ENDBRANCH   7   8
ENDBRANCH   1   7
BRANCH   2  22
ATOM     22  O   UNL     1      14.116 -22.510  20.182  1.00  0.00    -0.387 OA
ATOM     23  H   UNL     1      14.092 -22.780  19.241  1.00  0.00     0.211 HD
ENDBRANCH   2  22
BRANCH   3  24
ATOM     24  O   UNL     1      12.018 -20.636  20.551  1.00  0.00    -0.387 OA
ATOM     25  H   UNL     1      11.414 -20.449  21.299  1.00  0.00     0.211 HD
ENDBRANCH   3  24
BRANCH   5  26
ATOM     26  O   UNL     1      15.297 -17.283  21.575  1.00  0.00    -0.347 OA
BRANCH  26  27
ATOM     27  C   UNL     1      16.598 -16.866  21.146  1.00  0.00     0.200 C 
BRANCH  27  28
ATOM     28  C   UNL     1      16.692 -15.445  20.549  1.00  0.00     0.170 C 
BRANCH  28  29
ATOM     29  C   UNL     1      16.630 -14.261  21.497  1.00  0.00    -0.013 A 
ATOM     30  C   UNL     1      17.136 -14.424  22.802  1.00  0.00     0.056 A 
ATOM     31  C   UNL     1      16.065 -13.020  21.155  1.00  0.00     0.010 A 
ATOM     32  C   UNL     1      17.106 -13.370  23.708  1.00  0.00     0.157 A 
ATOM     33  C   UNL     1      16.019 -11.969  22.078  1.00  0.00     0.050 A 
ATOM     34  C   UNL     1      16.541 -12.154  23.348  1.00  0.00     0.157 A 
BRANCH  32  35
ATOM     35  O   UNL     1      17.650 -13.483  24.959  1.00  0.00    -0.504 OA
ATOM     36  H   UNL     1      17.992 -14.402  25.053  1.00  0.00     0.293 HD
ENDBRANCH  32  35
BRANCH  34  37
ATOM     37  O   UNL     1      16.504 -11.124  24.243  1.00  0.00    -0.504 OA
ATOM     38  H   UNL     1      16.028 -11.489  25.016  1.00  0.00     0.293 HD
ENDBRANCH  34  37
ENDBRANCH  28  29
BRANCH  28  39
ATOM     39  O   UNL     1      15.713 -15.289  19.518  1.00  0.00    -0.386 OA
ATOM     40  H   UNL     1      16.206 -15.037  18.707  1.00  0.00     0.211 HD
ENDBRANCH  28  39
ENDBRANCH  27  28
ENDBRANCH  26  27
ENDBRANCH   5  26
BRANCH   4  41
ATOM     41  O   UNL     1      12.709 -18.317  22.079  1.00  0.00    -0.385 OA
ATOM     42  H   UNL     1      11.901 -18.139  21.558  1.00  0.00     0.211 HD
ENDBRANCH   4  41
TORSDOF 16
ENDMDL
MODEL 2
REMARK VINA RESULT:    -9.113      2.161      5.802
REMARK INTER + INTRA:         -16.863
REMARK INTER:                 -15.494
REMARK INTRA:                  -1.369
REMARK UNBOUND:                -1.625
REMARK SMILES C[C@@H]1O[C@@H](OC[C@H]2O[C@@H](OCC(O)c3ccc(O)c(O)c3)[C@H](O)[C@@H](O)[C@@H]2O)[C@H](O)[C@H](O)[C@H]1O
REMARK SMILES IDX 7 1 26 2 24 3 22 4 9 5 8 6 6 7 5 8 4 9 2 10 32 11 3 12 30 13
REMARK SMILES IDX 28 14 1 15 33 16 31 18 29 20 27 22 25 24 10 26 11 27 12 28
REMARK SMILES IDX 14 29 21 30 15 31 19 32 16 33 17 34 20 35 18 37 13 39 23 41
REMARK H PARENT 33 17 31 19 29 21 27 23 25 25 20 36 18 38 13 40 23 42
ROOT
ATOM      1  C   UNL     1      15.306 -18.144  20.251  1.00  0.00     0.178 C 
ATOM      2  C   UNL     1      15.734 -18.855  18.959  1.00  0.00     0.177 C 
ATOM      3  C   UNL     1      15.729 -17.865  17.796  1.00  0.00     0.179 C 
ATOM      4  C   UNL     1      16.572 -16.642  18.137  1.00  0.00     0.202 C 
ATOM      5  C   UNL     1      16.087 -16.033  19.467  1.00  0.00     0.282 C 
ATOM      6  O   UNL     1      16.161 -17.008  20.509  1.00  0.00    -0.341 OA
ENDROOT
BRANCH   1   7
ATOM      7  C   UNL     1      15.382 -19.107  21.447  1.00  0.00     0.198 C 
BRANCH   7   8
ATOM      8  O   UNL     1      14.147 -19.829  21.543  1.00  0.00    -0.347 OA
BRANCH   8   9
ATOM      9  C   UNL     1      13.004 -18.974  21.619  1.00  0.00     0.281 C 
ATOM     10  C   UNL     1      12.232 -19.960  23.663  1.00  0.00     0.150 C 
ATOM     11  C   UNL     1      10.976 -20.538  22.990  1.00  0.00     0.174 C 
ATOM     12  O   UNL     1      12.664 -18.771  23.000  1.00  0.00    -0.344 OA
ATOM     13  C   UNL     1      11.265 -20.789  21.503  1.00  0.00     0.179 C 
ATOM     14  C   UNL     1      11.801 -19.527  20.827  1.00  0.00     0.202 C 
ATOM     15  C   UNL     1      11.975 -19.596  25.121  1.00  0.00     0.041 C 
BRANCH  11  16
ATOM     16  O   UNL     1      10.555 -21.771  23.608  1.00  0.00    -0.388 OA
ATOM     17  H   UNL     1      10.169 -22.307  22.888  1.00  0.00     0.211 HD
ENDBRANCH  11  16
BRANCH  13  18
ATOM     18  O   UNL     1      10.054 -21.191  20.836  1.00  0.00    -0.387 OA
ATOM     19  H   UNL     1       9.517 -21.644  21.517  1.00  0.00     0.211 HD
ENDBRANCH  13  18
BRANCH  14  20
ATOM     20  O   UNL     1      10.742 -18.558  20.739  1.00  0.00    -0.385 OA
ATOM     21  H   UNL     1      10.561 -18.305  21.669  1.00  0.00     0.211 HD
ENDBRANCH  14  20
ENDBRANCH   8   9
ENDBRANCH   7   8
ENDBRANCH   1   7
BRANCH   2  22
ATOM     22  O   UNL     1      14.858 -19.941  18.651  1.00  0.00    -0.387 OA
ATOM     23  H   UNL     1      14.229 -19.985  19.401  1.00  0.00     0.211 HD
ENDBRANCH   2  22
BRANCH   3  24
ATOM     24  O   UNL     1      16.242 -18.517  16.624  1.00  0.00    -0.387 OA
ATOM     25  H   UNL     1      15.588 -18.327  15.920  1.00  0.00     0.211 HD
ENDBRANCH   3  24
BRANCH   5  26
ATOM     26  O   UNL     1      16.969 -14.941  19.742  1.00  0.00    -0.347 OA
BRANCH  26  27
ATOM     27  C   UNL     1      16.428 -13.932  20.604  1.00  0.00     0.200 C 
BRANCH  27  28
ATOM     28  C   UNL     1      16.512 -14.218  22.119  1.00  0.00     0.170 C 
BRANCH  28  29
ATOM     29  C   UNL     1      16.529 -13.040  23.075  1.00  0.00    -0.013 A 
ATOM     30  C   UNL     1      17.242 -13.171  24.283  1.00  0.00     0.056 A 
ATOM     31  C   UNL     1      15.845 -11.836  22.837  1.00  0.00     0.010 A 
ATOM     32  C   UNL     1      17.293 -12.121  25.192  1.00  0.00     0.157 A 
ATOM     33  C   UNL     1      15.881 -10.789  23.765  1.00  0.00     0.050 A 
ATOM     34  C   UNL     1      16.607 -10.941  24.936  1.00  0.00     0.157 A 
BRANCH  32  35
ATOM     35  O   UNL     1      18.032 -12.200  26.341  1.00  0.00    -0.504 OA
ATOM     36  H   UNL     1      18.101 -11.291  26.714  1.00  0.00     0.293 HD
ENDBRANCH  32  35
BRANCH  34  37
ATOM     37  O   UNL     1      16.649  -9.914  25.834  1.00  0.00    -0.504 OA
ATOM     38  H   UNL     1      17.352  -9.323  25.497  1.00  0.00     0.293 HD
ENDBRANCH  34  37
ENDBRANCH  28  29
BRANCH  28  39
ATOM     39  O   UNL     1      17.626 -15.074  22.387  1.00  0.00    -0.386 OA
ATOM     40  H   UNL     1      18.351 -14.774  21.796  1.00  0.00     0.211 HD
ENDBRANCH  28  39
ENDBRANCH  27  28
ENDBRANCH  26  27
ENDBRANCH   5  26
BRANCH   4  41
ATOM     41  O   UNL     1      16.476 -15.698  17.059  1.00  0.00    -0.385 OA
ATOM     42  H   UNL     1      17.278 -15.143  17.132  1.00  0.00     0.211 HD
ENDBRANCH   4  41
TORSDOF 16
ENDMDL
MODEL 3
REMARK VINA RESULT:    -9.092      2.095      6.001
REMARK INTER + INTRA:         -16.828
REMARK INTER:                 -15.690
REMARK INTRA:                  -1.139
REMARK UNBOUND:                -1.625
REMARK SMILES C[C@@H]1O[C@@H](OC[C@H]2O[C@@H](OCC(O)c3ccc(O)c(O)c3)[C@H](O)[C@@H](O)[C@@H]2O)[C@H](O)[C@H](O)[C@H]1O
REMARK SMILES IDX 7 1 26 2 24 3 22 4 9 5 8 6 6 7 5 8 4 9 2 10 32 11 3 12 30 13
REMARK SMILES IDX 28 14 1 15 33 16 31 18 29 20 27 22 25 24 10 26 11 27 12 28
REMARK SMILES IDX 14 29 21 30 15 31 19 32 16 33 17 34 20 35 18 37 13 39 23 41
REMARK H PARENT 33 17 31 19 29 21 27 23 25 25 20 36 18 38 13 40 23 42
ROOT
ATOM      1  C   UNL     1      15.073 -18.152  20.328  1.00  0.00     0.178 C 
ATOM      2  C   UNL     1      15.565 -18.972  19.126  1.00  0.00     0.177 C 
ATOM      3  C   UNL     1      15.728 -18.062  17.910  1.00  0.00     0.179 C 
ATOM      4  C   UNL     1      16.617 -16.873  18.252  1.00  0.00     0.202 C 
ATOM      5  C   UNL     1      16.058 -16.149  19.492  1.00  0.00     0.282 C 
ATOM      6  O   UNL     1      15.975 -17.055  20.593  1.00  0.00    -0.341 OA
ENDROOT
BRANCH   1   7
ATOM      7  C   UNL     1      14.979 -19.036  21.581  1.00  0.00     0.198 C 
BRANCH   7   8
ATOM      8  O   UNL     1      13.753 -18.749  22.264  1.00  0.00    -0.347 OA
BRANCH   8   9
ATOM      9  C   UNL     1      12.595 -19.009  21.468  1.00  0.00     0.281 C 
ATOM     10  C   UNL     1      11.084 -18.570  23.276  1.00  0.00     0.150 C 
ATOM     11  C   UNL     1      10.609 -20.032  23.326  1.00  0.00     0.174 C 
ATOM     12  O   UNL     1      11.502 -18.214  21.957  1.00  0.00    -0.344 OA
ATOM     13  C   UNL     1      11.732 -20.948  22.819  1.00  0.00     0.179 C 
ATOM     14  C   UNL     1      12.223 -20.507  21.441  1.00  0.00     0.202 C 
ATOM     15  C   UNL     1       9.974 -17.602  23.673  1.00  0.00     0.041 C 
BRANCH  11  16
ATOM     16  O   UNL     1      10.235 -20.429  24.660  1.00  0.00    -0.388 OA
ATOM     17  H   UNL     1       9.587 -21.152  24.547  1.00  0.00     0.211 HD
ENDBRANCH  11  16
BRANCH  13  18
ATOM     18  O   UNL     1      11.247 -22.300  22.724  1.00  0.00    -0.387 OA
ATOM     19  H   UNL     1      10.497 -22.268  22.097  1.00  0.00     0.211 HD
ENDBRANCH  13  18
BRANCH  14  20
ATOM     20  O   UNL     1      11.195 -20.773  20.471  1.00  0.00    -0.385 OA
ATOM     21  H   UNL     1      10.464 -20.167  20.713  1.00  0.00     0.211 HD
ENDBRANCH  14  20
ENDBRANCH   8   9
ENDBRANCH   7   8
ENDBRANCH   1   7
BRANCH   2  22
ATOM     22  O   UNL     1      14.650 -20.021  18.805  1.00  0.00    -0.387 OA
ATOM     23  H   UNL     1      14.845 -20.737  19.444  1.00  0.00     0.211 HD
ENDBRANCH   2  22
BRANCH   3  24
ATOM     24  O   UNL     1      16.298 -18.821  16.832  1.00  0.00    -0.387 OA
ATOM     25  H   UNL     1      17.267 -18.733  16.943  1.00  0.00     0.211 HD
ENDBRANCH   3  24
BRANCH   5  26
ATOM     26  O   UNL     1      16.983 -15.096  19.780  1.00  0.00    -0.347 OA
BRANCH  26  27
ATOM     27  C   UNL     1      16.458 -14.038  20.591  1.00  0.00     0.200 C 
BRANCH  27  28
ATOM     28  C   UNL     1      16.512 -14.263  22.118  1.00  0.00     0.170 C 
BRANCH  28  29
ATOM     29  C   UNL     1      16.501 -13.048  23.026  1.00  0.00    -0.013 A 
ATOM     30  C   UNL     1      17.188 -13.126  24.253  1.00  0.00     0.056 A 
ATOM     31  C   UNL     1      15.813 -11.859  22.726  1.00  0.00     0.010 A 
ATOM     32  C   UNL     1      17.212 -12.040  25.121  1.00  0.00     0.157 A 
ATOM     33  C   UNL     1      15.823 -10.776  23.613  1.00  0.00     0.050 A 
ATOM     34  C   UNL     1      16.524 -10.876  24.804  1.00  0.00     0.157 A 
BRANCH  32  35
ATOM     35  O   UNL     1      17.926 -12.068  26.287  1.00  0.00    -0.504 OA
ATOM     36  H   UNL     1      17.295 -12.259  27.019  1.00  0.00     0.293 HD
ENDBRANCH  32  35
BRANCH  34  37
ATOM     37  O   UNL     1      16.540  -9.814  25.661  1.00  0.00    -0.504 OA
ATOM     38  H   UNL     1      15.937 -10.077  26.385  1.00  0.00     0.293 HD
ENDBRANCH  34  37
ENDBRANCH  28  29
BRANCH  28  39
ATOM     39  O   UNL     1      17.628 -15.098  22.442  1.00  0.00    -0.386 OA
ATOM     40  H   UNL     1      18.427 -14.537  22.346  1.00  0.00     0.211 HD
ENDBRANCH  28  39
ENDBRANCH  27  28
ENDBRANCH  26  27
ENDBRANCH   5  26
BRANCH   4  41
ATOM     41  O   UNL     1      16.679 -15.998  17.114  1.00  0.00    -0.385 OA
ATOM     42  H   UNL     1      16.735 -16.591  16.338  1.00  0.00     0.211 HD
ENDBRANCH   4  41
TORSDOF 16
ENDMDL
MODEL 4
REMARK VINA RESULT:    -9.074      1.952      5.440
REMARK INTER + INTRA:         -16.800
REMARK INTER:                 -15.573
REMARK INTRA:                  -1.227
REMARK UNBOUND:                -1.625
REMARK SMILES C[C@@H]1O[C@@H](OC[C@H]2O[C@@H](OCC(O)c3ccc(O)c(O)c3)[C@H](O)[C@@H](O)[C@@H]2O)[C@H](O)[C@H](O)[C@H]1O
REMARK SMILES IDX 7 1 26 2 24 3 22 4 9 5 8 6 6 7 5 8 4 9 2 10 32 11 3 12 30 13
REMARK SMILES IDX 28 14 1 15 33 16 31 18 29 20 27 22 25 24 10 26 11 27 12 28
REMARK SMILES IDX 14 29 21 30 15 31 19 32 16 33 17 34 20 35 18 37 13 39 23 41
REMARK H PARENT 33 17 31 19 29 21 27 23 25 25 20 36 18 38 13 40 23 42
ROOT
ATOM      1  C   UNL     1      15.516 -18.794  20.041  1.00  0.00     0.178 C 
ATOM      2  C   UNL     1      15.877 -19.346  18.655  1.00  0.00     0.177 C 
ATOM      3  C   UNL     1      15.880 -18.213  17.630  1.00  0.00     0.179 C 
ATOM      4  C   UNL     1      16.781 -17.077  18.098  1.00  0.00     0.202 C 
ATOM      5  C   UNL     1      16.361 -16.629  19.510  1.00  0.00     0.282 C 
ATOM      6  O   UNL     1      16.424 -17.734  20.415  1.00  0.00    -0.341 OA
ENDROOT
BRANCH   1   7
ATOM      7  C   UNL     1      15.586 -19.907  21.099  1.00  0.00     0.198 C 
BRANCH   7   8
ATOM      8  O   UNL     1      14.405 -20.713  21.007  1.00  0.00    -0.347 OA
BRANCH   8   9
ATOM      9  C   UNL     1      13.595 -20.655  22.184  1.00  0.00     0.281 C 
ATOM     10  C   UNL     1      11.681 -21.582  21.079  1.00  0.00     0.150 C 
ATOM     11  C   UNL     1      10.881 -20.276  21.221  1.00  0.00     0.174 C 
ATOM     12  O   UNL     1      12.628 -21.717  22.139  1.00  0.00    -0.344 OA
ATOM     13  C   UNL     1      11.851 -19.088  21.271  1.00  0.00     0.179 C 
ATOM     14  C   UNL     1      12.907 -19.285  22.359  1.00  0.00     0.202 C 
ATOM     15  C   UNL     1      10.775 -22.808  21.125  1.00  0.00     0.041 C 
BRANCH  11  16
ATOM     16  O   UNL     1       9.957 -20.091  20.130  1.00  0.00    -0.388 OA
ATOM     17  H   UNL     1       9.395 -20.891  20.123  1.00  0.00     0.211 HD
ENDBRANCH  11  16
BRANCH  13  18
ATOM     18  O   UNL     1      11.122 -17.879  21.551  1.00  0.00    -0.387 OA
ATOM     19  H   UNL     1      10.886 -17.926  22.499  1.00  0.00     0.211 HD
ENDBRANCH  13  18
BRANCH  14  20
ATOM     20  O   UNL     1      12.277 -19.177  23.647  1.00  0.00    -0.385 OA
ATOM     21  H   UNL     1      11.352 -18.919  23.449  1.00  0.00     0.211 HD
ENDBRANCH  14  20
ENDBRANCH   8   9
ENDBRANCH   7   8
ENDBRANCH   1   7
BRANCH   2  22
ATOM     22  O   UNL     1      14.949 -20.349  18.238  1.00  0.00    -0.387 OA
ATOM     23  H   UNL     1      14.523 -19.988  17.433  1.00  0.00     0.211 HD
ENDBRANCH   2  22
BRANCH   3  24
ATOM     24  O   UNL     1      16.332 -18.725  16.367  1.00  0.00    -0.387 OA
ATOM     25  H   UNL     1      16.469 -17.934  15.806  1.00  0.00     0.211 HD
ENDBRANCH   3  24
BRANCH   5  26
ATOM     26  O   UNL     1      17.294 -15.615  19.895  1.00  0.00    -0.347 OA
BRANCH  26  27
ATOM     27  C   UNL     1      16.725 -14.510  20.607  1.00  0.00     0.200 C 
BRANCH  27  28
ATOM     28  C   UNL     1      16.709 -14.632  22.146  1.00  0.00     0.170 C 
BRANCH  28  29
ATOM     29  C   UNL     1      16.626 -13.359  22.969  1.00  0.00    -0.013 A 
ATOM     30  C   UNL     1      17.172 -13.368  24.267  1.00  0.00     0.056 A 
ATOM     31  C   UNL     1      16.005 -12.182  22.519  1.00  0.00     0.010 A 
ATOM     32  C   UNL     1      17.126 -12.227  25.061  1.00  0.00     0.157 A 
ATOM     33  C   UNL     1      15.942 -11.043  23.330  1.00  0.00     0.050 A 
ATOM     34  C   UNL     1      16.505 -11.076  24.596  1.00  0.00     0.157 A 
BRANCH  32  35
ATOM     35  O   UNL     1      17.706 -12.191  26.300  1.00  0.00    -0.504 OA
ATOM     36  H   UNL     1      18.485 -12.794  26.282  1.00  0.00     0.293 HD
ENDBRANCH  32  35
BRANCH  34  37
ATOM     37  O   UNL     1      16.451  -9.961  25.380  1.00  0.00    -0.504 OA
ATOM     38  H   UNL     1      16.891  -9.267  24.849  1.00  0.00     0.293 HD
ENDBRANCH  34  37
ENDBRANCH  28  29
BRANCH  28  39
ATOM     39  O   UNL     1      17.826 -15.415  22.579  1.00  0.00    -0.386 OA
ATOM     40  H   UNL     1      18.090 -15.056  23.454  1.00  0.00     0.211 HD
ENDBRANCH  28  39
ENDBRANCH  27  28
ENDBRANCH  26  27
ENDBRANCH   5  26
BRANCH   4  41
ATOM     41  O   UNL     1      16.693 -15.997  17.154  1.00  0.00    -0.385 OA
ATOM     42  H   UNL     1      16.411 -15.221  17.678  1.00  0.00     0.211 HD
ENDBRANCH   4  41
TORSDOF 16
ENDMDL
MODEL 5
REMARK VINA RESULT:    -8.922      2.497      4.103
REMARK INTER + INTRA:         -16.546
REMARK INTER:                 -16.199
REMARK INTRA:                  -0.347
REMARK UNBOUND:                -1.625
REMARK SMILES C[C@@H]1O[C@@H](OC[C@H]2O[C@@H](OCC(O)c3ccc(O)c(O)c3)[C@H](O)[C@@H](O)[C@@H]2O)[C@H](O)[C@H](O)[C@H]1O
REMARK SMILES IDX 7 1 26 2 24 3 22 4 9 5 8 6 6 7 5 8 4 9 2 10 32 11 3 12 30 13
REMARK SMILES IDX 28 14 1 15 33 16 31 18 29 20 27 22 25 24 10 26 11 27 12 28
REMARK SMILES IDX 14 29 21 30 15 31 19 32 16 33 17 34 20 35 18 37 13 39 23 41
REMARK H PARENT 33 17 31 19 29 21 27 23 25 25 20 36 18 38 13 40 23 42
ROOT
ATOM      1  C   UNL     1      19.011 -18.143  17.988  1.00  0.00     0.178 C 
ATOM      2  C   UNL     1      17.658 -18.577  17.405  1.00  0.00     0.177 C 
ATOM      3  C   UNL     1      16.760 -19.111  18.519  1.00  0.00     0.179 C 
ATOM      4  C   UNL     1      16.650 -18.092  19.646  1.00  0.00     0.202 C 
ATOM      5  C   UNL     1      18.058 -17.696  20.127  1.00  0.00     0.282 C 
ATOM      6  O   UNL     1      18.819 -17.169  19.038  1.00  0.00    -0.341 OA
ENDROOT
BRANCH   1   7
ATOM      7  C   UNL     1      19.897 -17.529  16.893  1.00  0.00     0.198 C 
BRANCH   7   8
ATOM      8  O   UNL     1      21.261 -17.892  17.139  1.00  0.00    -0.347 OA
BRANCH   8   9
ATOM      9  C   UNL     1      21.659 -19.077  16.445  1.00  0.00     0.281 C 
ATOM     10  C   UNL     1      23.996 -18.616  16.716  1.00  0.00     0.150 C 
ATOM     11  C   UNL     1      24.202 -18.414  15.205  1.00  0.00     0.174 C 
ATOM     12  O   UNL     1      22.922 -19.523  16.966  1.00  0.00    -0.344 OA
ATOM     13  C   UNL     1      22.889 -17.928  14.574  1.00  0.00     0.179 C 
ATOM     14  C   UNL     1      21.733 -18.868  14.918  1.00  0.00     0.202 C 
ATOM     15  C   UNL     1      25.239 -19.195  17.383  1.00  0.00     0.041 C 
BRANCH  11  16
ATOM     16  O   UNL     1      25.245 -17.457  14.929  1.00  0.00    -0.388 OA
ATOM     17  H   UNL     1      25.712 -17.799  14.142  1.00  0.00     0.211 HD
ENDBRANCH  11  16
BRANCH  13  18
ATOM     18  O   UNL     1      23.031 -17.877  13.143  1.00  0.00    -0.387 OA
ATOM     19  H   UNL     1      23.869 -18.340  12.944  1.00  0.00     0.211 HD
ENDBRANCH  13  18
BRANCH  14  20
ATOM     20  O   UNL     1      21.923 -20.115  14.227  1.00  0.00    -0.385 OA
ATOM     21  H   UNL     1      22.895 -20.199  14.132  1.00  0.00     0.211 HD
ENDBRANCH  14  20
ENDBRANCH   8   9
ENDBRANCH   7   8
ENDBRANCH   1   7
BRANCH   2  22
ATOM     22  O   UNL     1      17.823 -19.590  16.411  1.00  0.00    -0.387 OA
ATOM     23  H   UNL     1      18.594 -20.117  16.706  1.00  0.00     0.211 HD
ENDBRANCH   2  22
BRANCH   3  24
ATOM     24  O   UNL     1      15.463 -19.402  17.976  1.00  0.00    -0.387 OA
ATOM     25  H   UNL     1      15.638 -19.797  17.097  1.00  0.00     0.211 HD
ENDBRANCH   3  24
BRANCH   5  26
ATOM     26  O   UNL     1      17.863 -16.695  21.130  1.00  0.00    -0.347 OA
BRANCH  26  27
ATOM     27  C   UNL     1      16.590 -16.039  21.089  1.00  0.00     0.200 C 
BRANCH  27  28
ATOM     28  C   UNL     1      16.616 -14.530  20.764  1.00  0.00     0.170 C 
BRANCH  28  29
ATOM     29  C   UNL     1      16.601 -13.545  21.918  1.00  0.00    -0.013 A 
ATOM     30  C   UNL     1      17.187 -13.938  23.138  1.00  0.00     0.056 A 
ATOM     31  C   UNL     1      16.006 -12.274  21.848  1.00  0.00     0.010 A 
ATOM     32  C   UNL     1      17.203 -13.072  24.226  1.00  0.00     0.157 A 
ATOM     33  C   UNL     1      16.006 -11.415  22.953  1.00  0.00     0.050 A 
ATOM     34  C   UNL     1      16.607 -11.822  24.133  1.00  0.00     0.157 A 
BRANCH  32  35
ATOM     35  O   UNL     1      17.822 -13.406  25.399  1.00  0.00    -0.504 OA
ATOM     36  H   UNL     1      17.178 -13.256  26.129  1.00  0.00     0.293 HD
ENDBRANCH  32  35
BRANCH  34  37
ATOM     37  O   UNL     1      16.614 -10.977  25.206  1.00  0.00    -0.504 OA
ATOM     38  H   UNL     1      17.561 -10.787  25.359  1.00  0.00     0.293 HD
ENDBRANCH  34  37
ENDBRANCH  28  29
BRANCH  28  39
ATOM     39  O   UNL     1      15.563 -14.216  19.848  1.00  0.00    -0.386 OA
ATOM     40  H   UNL     1      15.637 -13.255  19.663  1.00  0.00     0.211 HD
ENDBRANCH  28  39
ENDBRANCH  27  28
ENDBRANCH  26  27
ENDBRANCH   5  26
BRANCH   4  41
ATOM     41  O   UNL     1      15.870 -18.661  20.710  1.00  0.00    -0.385 OA
ATOM     42  H   UNL     1      15.731 -19.595  20.455  1.00  0.00     0.211 HD
ENDBRANCH   4  41
TORSDOF 16
ENDMDL
MODEL 6
REMARK VINA RESULT:    -8.862      2.539      4.363
REMARK INTER + INTRA:         -16.444
REMARK INTER:                 -15.581
REMARK INTRA:                  -0.863
REMARK UNBOUND:                -1.625
REMARK SMILES C[C@@H]1O[C@@H](OC[C@H]2O[C@@H](OCC(O)c3ccc(O)c(O)c3)[C@H](O)[C@@H](O)[C@@H]2O)[C@H](O)[C@H](O)[C@H]1O
REMARK SMILES IDX 7 1 26 2 24 3 22 4 9 5 8 6 6 7 5 8 4 9 2 10 32 11 3 12 30 13
REMARK SMILES IDX 28 14 1 15 33 16 31 18 29 20 27 22 25 24 10 26 11 27 12 28
REMARK SMILES IDX 14 29 21 30 15 31 19 32 16 33 17 34 20 35 18 37 13 39 23 41
REMARK H PARENT 33 17 31 19 29 21 27 23 25 25 20 36 18 38 13 40 23 42
ROOT
ATOM      1  C   UNL     1      19.296 -18.126  18.038  1.00  0.00     0.178 C 
ATOM      2  C   UNL     1      18.176 -19.044  17.528  1.00  0.00     0.177 C 
ATOM      3  C   UNL     1      17.528 -19.774  18.704  1.00  0.00     0.179 C 
ATOM      4  C   UNL     1      17.077 -18.776  19.764  1.00  0.00     0.202 C 
ATOM      5  C   UNL     1      18.262 -17.881  20.171  1.00  0.00     0.282 C 
ATOM      6  O   UNL     1      18.783 -17.205  19.025  1.00  0.00    -0.341 OA
ENDROOT
BRANCH   1   7
ATOM      7  C   UNL     1      19.905 -17.325  16.876  1.00  0.00     0.198 C 
BRANCH   7   8
ATOM      8  O   UNL     1      21.287 -17.679  16.740  1.00  0.00    -0.347 OA
BRANCH   8   9
ATOM      9  C   UNL     1      21.607 -18.197  15.446  1.00  0.00     0.281 C 
ATOM     10  C   UNL     1      22.911 -19.999  16.339  1.00  0.00     0.150 C 
ATOM     11  C   UNL     1      24.216 -19.439  15.748  1.00  0.00     0.174 C 
ATOM     12  O   UNL     1      21.787 -19.619  15.544  1.00  0.00    -0.344 OA
ATOM     13  C   UNL     1      24.101 -17.913  15.618  1.00  0.00     0.179 C 
ATOM     14  C   UNL     1      22.850 -17.521  14.831  1.00  0.00     0.202 C 
ATOM     15  C   UNL     1      22.927 -21.523  16.399  1.00  0.00     0.041 C 
BRANCH  11  16
ATOM     16  O   UNL     1      25.358 -19.762  16.566  1.00  0.00    -0.388 OA
ATOM     17  H   UNL     1      26.097 -19.900  15.942  1.00  0.00     0.211 HD
ENDBRANCH  11  16
BRANCH  13  18
ATOM     18  O   UNL     1      25.257 -17.398  14.932  1.00  0.00    -0.387 OA
ATOM     19  H   UNL     1      25.290 -17.873  14.077  1.00  0.00     0.211 HD
ENDBRANCH  13  18
BRANCH  14  20
ATOM     20  O   UNL     1      23.025 -17.900  13.455  1.00  0.00    -0.385 OA
ATOM     21  H   UNL     1      22.420 -18.661  13.330  1.00  0.00     0.211 HD
ENDBRANCH  14  20
ENDBRANCH   8   9
ENDBRANCH   7   8
ENDBRANCH   1   7
BRANCH   2  22
ATOM     22  O   UNL     1      18.677 -20.008  16.600  1.00  0.00    -0.387 OA
ATOM     23  H   UNL     1      19.596 -19.727  16.409  1.00  0.00     0.211 HD
ENDBRANCH   2  22
BRANCH   3  24
ATOM     24  O   UNL     1      16.411 -20.536  18.223  1.00  0.00    -0.387 OA
ATOM     25  H   UNL     1      16.795 -21.380  17.907  1.00  0.00     0.211 HD
ENDBRANCH   3  24
BRANCH   5  26
ATOM     26  O   UNL     1      17.737 -16.939  21.111  1.00  0.00    -0.347 OA
BRANCH  26  27
ATOM     27  C   UNL     1      16.514 -16.307  20.712  1.00  0.00     0.200 C 
BRANCH  27  28
ATOM     28  C   UNL     1      16.605 -14.799  20.390  1.00  0.00     0.170 C 
BRANCH  28  29
ATOM     29  C   UNL     1      16.588 -13.814  21.544  1.00  0.00    -0.013 A 
ATOM     30  C   UNL     1      17.155 -14.213  22.770  1.00  0.00     0.056 A 
ATOM     31  C   UNL     1      16.008 -12.536  21.467  1.00  0.00     0.010 A 
ATOM     32  C   UNL     1      17.169 -13.347  23.858  1.00  0.00     0.157 A 
ATOM     33  C   UNL     1      16.005 -11.677  22.571  1.00  0.00     0.050 A 
ATOM     34  C   UNL     1      16.587 -12.090  23.758  1.00  0.00     0.157 A 
BRANCH  32  35
ATOM     35  O   UNL     1      17.771 -13.687  25.038  1.00  0.00    -0.504 OA
ATOM     36  H   UNL     1      18.588 -14.192  24.821  1.00  0.00     0.293 HD
ENDBRANCH  32  35
BRANCH  34  37
ATOM     37  O   UNL     1      16.592 -11.245  24.830  1.00  0.00    -0.504 OA
ATOM     38  H   UNL     1      16.487 -11.833  25.605  1.00  0.00     0.293 HD
ENDBRANCH  34  37
ENDBRANCH  28  29
BRANCH  28  39
ATOM     39  O   UNL     1      15.595 -14.448  19.440  1.00  0.00    -0.386 OA
ATOM     40  H   UNL     1      15.658 -13.476  19.319  1.00  0.00     0.211 HD
ENDBRANCH  28  39
ENDBRANCH  27  28
ENDBRANCH  26  27
ENDBRANCH   5  26
BRANCH   4  41
ATOM     41  O   UNL     1      16.551 -19.501  20.888  1.00  0.00    -0.385 OA
ATOM     42  H   UNL     1      16.744 -20.441  20.700  1.00  0.00     0.211 HD
ENDBRANCH   4  41
TORSDOF 16
ENDMDL
MODEL 7
REMARK VINA RESULT:    -8.622      3.121      5.235
REMARK INTER + INTRA:         -16.044
REMARK INTER:                 -14.890
REMARK INTRA:                  -1.153
REMARK UNBOUND:                -1.625
REMARK SMILES C[C@@H]1O[C@@H](OC[C@H]2O[C@@H](OCC(O)c3ccc(O)c(O)c3)[C@H](O)[C@@H](O)[C@@H]2O)[C@H](O)[C@H](O)[C@H]1O
REMARK SMILES IDX 7 1 26 2 24 3 22 4 9 5 8 6 6 7 5 8 4 9 2 10 32 11 3 12 30 13
REMARK SMILES IDX 28 14 1 15 33 16 31 18 29 20 27 22 25 24 10 26 11 27 12 28
REMARK SMILES IDX 14 29 21 30 15 31 19 32 16 33 17 34 20 35 18 37 13 39 23 41
REMARK H PARENT 33 17 31 19 29 21 27 23 25 25 20 36 18 38 13 40 23 42
ROOT
ATOM      1  C   UNL     1      19.996 -18.611  17.321  1.00  0.00     0.178 C 
ATOM      2  C   UNL     1      19.033 -19.770  17.027  1.00  0.00     0.177 C 
ATOM      3  C   UNL     1      18.526 -20.368  18.338  1.00  0.00     0.179 C 
ATOM      4  C   UNL     1      17.932 -19.279  19.223  1.00  0.00     0.202 C 
ATOM      5  C   UNL     1      18.962 -18.151  19.418  1.00  0.00     0.282 C 
ATOM      6  O   UNL     1      19.353 -17.619  18.151  1.00  0.00    -0.341 OA
ENDROOT
BRANCH   1   7
ATOM      7  C   UNL     1      20.454 -17.946  16.012  1.00  0.00     0.198 C 
BRANCH   7   8
ATOM      8  O   UNL     1      21.587 -18.659  15.499  1.00  0.00    -0.347 OA
BRANCH   8   9
ATOM      9  C   UNL     1      22.620 -17.795  15.018  1.00  0.00     0.281 C 
ATOM     10  C   UNL     1      23.127 -19.215  13.154  1.00  0.00     0.150 C 
ATOM     11  C   UNL     1      24.525 -19.550  13.702  1.00  0.00     0.174 C 
ATOM     12  O   UNL     1      22.706 -17.922  13.589  1.00  0.00    -0.344 OA
ATOM     13  C   UNL     1      24.510 -19.442  15.233  1.00  0.00     0.179 C 
ATOM     14  C   UNL     1      23.982 -18.079  15.684  1.00  0.00     0.202 C 
ATOM     15  C   UNL     1      23.104 -19.208  11.630  1.00  0.00     0.041 C 
BRANCH  11  16
ATOM     16  O   UNL     1      24.946 -20.876  13.322  1.00  0.00    -0.388 OA
ATOM     17  H   UNL     1      24.558 -21.032  12.439  1.00  0.00     0.211 HD
ENDBRANCH  11  16
BRANCH  13  18
ATOM     18  O   UNL     1      25.846 -19.610  15.743  1.00  0.00    -0.387 OA
ATOM     19  H   UNL     1      26.423 -19.092  15.146  1.00  0.00     0.211 HD
ENDBRANCH  13  18
BRANCH  14  20
ATOM     20  O   UNL     1      24.950 -17.069  15.348  1.00  0.00    -0.385 OA
ATOM     21  H   UNL     1      25.119 -16.600  16.191  1.00  0.00     0.211 HD
ENDBRANCH  14  20
ENDBRANCH   8   9
ENDBRANCH   7   8
ENDBRANCH   1   7
BRANCH   2  22
ATOM     22  O   UNL     1      19.672 -20.794  16.263  1.00  0.00    -0.387 OA
ATOM     23  H   UNL     1      18.947 -21.380  15.960  1.00  0.00     0.211 HD
ENDBRANCH   2  22
BRANCH   3  24
ATOM     24  O   UNL     1      17.540 -21.370  18.045  1.00  0.00    -0.387 OA
ATOM     25  H   UNL     1      16.935 -20.951  17.399  1.00  0.00     0.211 HD
ENDBRANCH   3  24
BRANCH   5  26
ATOM     26  O   UNL     1      18.303 -17.149  20.198  1.00  0.00    -0.347 OA
BRANCH  26  27
ATOM     27  C   UNL     1      17.287 -16.414  19.503  1.00  0.00     0.200 C 
BRANCH  27  28
ATOM     28  C   UNL     1      16.103 -15.918  20.361  1.00  0.00     0.170 C 
BRANCH  28  29
ATOM     29  C   UNL     1      16.291 -14.658  21.188  1.00  0.00    -0.013 A 
ATOM     30  C   UNL     1      16.954 -14.766  22.426  1.00  0.00     0.056 A 
ATOM     31  C   UNL     1      15.811 -13.396  20.801  1.00  0.00     0.010 A 
ATOM     32  C   UNL     1      17.155 -13.643  23.221  1.00  0.00     0.157 A 
ATOM     33  C   UNL     1      15.997 -12.272  21.614  1.00  0.00     0.050 A 
ATOM     34  C   UNL     1      16.670 -12.406  22.818  1.00  0.00     0.157 A 
BRANCH  32  35
ATOM     35  O   UNL     1      17.852 -13.711  24.396  1.00  0.00    -0.504 OA
ATOM     36  H   UNL     1      17.649 -12.895  24.910  1.00  0.00     0.293 HD
ENDBRANCH  32  35
BRANCH  34  37
ATOM     37  O   UNL     1      16.859 -11.306  23.604  1.00  0.00    -0.504 OA
ATOM     38  H   UNL     1      17.766 -11.410  23.955  1.00  0.00     0.293 HD
ENDBRANCH  34  37
ENDBRANCH  28  29
BRANCH  28  39
ATOM     39  O   UNL     1      15.636 -16.979  21.198  1.00  0.00    -0.386 OA
ATOM     40  H   UNL     1      14.826 -17.331  20.769  1.00  0.00     0.211 HD
ENDBRANCH  28  39
ENDBRANCH  27  28
ENDBRANCH  26  27
ENDBRANCH   5  26
BRANCH   4  41
ATOM     41  O   UNL     1      17.544 -19.862  20.478  1.00  0.00    -0.385 OA
ATOM     42  H   UNL     1      16.569 -19.923  20.441  1.00  0.00     0.211 HD
ENDBRANCH   4  41
TORSDOF 16
ENDMDL
MODEL 8
REMARK VINA RESULT:    -8.586      2.091      3.637
REMARK INTER + INTRA:         -15.983
REMARK INTER:                 -14.629
REMARK INTRA:                  -1.353
REMARK UNBOUND:                -1.625
REMARK SMILES C[C@@H]1O[C@@H](OC[C@H]2O[C@@H](OCC(O)c3ccc(O)c(O)c3)[C@H](O)[C@@H](O)[C@@H]2O)[C@H](O)[C@H](O)[C@H]1O
REMARK SMILES IDX 7 1 26 2 24 3 22 4 9 5 8 6 6 7 5 8 4 9 2 10 32 11 3 12 30 13
REMARK SMILES IDX 28 14 1 15 33 16 31 18 29 20 27 22 25 24 10 26 11 27 12 28
REMARK SMILES IDX 14 29 21 30 15 31 19 32 16 33 17 34 20 35 18 37 13 39 23 41
REMARK H PARENT 33 17 31 19 29 21 27 23 25 25 20 36 18 38 13 40 23 42
ROOT
ATOM      1  C   UNL     1      17.965 -17.804  18.797  1.00  0.00     0.178 C 
ATOM      2  C   UNL     1      16.781 -18.424  18.040  1.00  0.00     0.177 C 
ATOM      3  C   UNL     1      15.795 -19.036  19.033  1.00  0.00     0.179 C 
ATOM      4  C   UNL     1      15.389 -18.007  20.081  1.00  0.00     0.202 C 
ATOM      5  C   UNL     1      16.648 -17.420  20.746  1.00  0.00     0.282 C 
ATOM      6  O   UNL     1      17.497 -16.832  19.758  1.00  0.00    -0.341 OA
ENDROOT
BRANCH   1   7
ATOM      7  C   UNL     1      18.928 -17.113  17.818  1.00  0.00     0.198 C 
BRANCH   7   8
ATOM      8  O   UNL     1      20.005 -18.009  17.514  1.00  0.00    -0.347 OA
BRANCH   8   9
ATOM      9  C   UNL     1      20.394 -17.969  16.138  1.00  0.00     0.281 C 
ATOM     10  C   UNL     1      20.419 -20.358  15.935  1.00  0.00     0.150 C 
ATOM     11  C   UNL     1      21.941 -20.392  15.717  1.00  0.00     0.174 C 
ATOM     12  O   UNL     1      19.865 -19.127  15.470  1.00  0.00    -0.344 OA
ATOM     13  C   UNL     1      22.582 -19.181  16.411  1.00  0.00     0.179 C 
ATOM     14  C   UNL     1      21.924 -17.877  15.961  1.00  0.00     0.202 C 
ATOM     15  C   UNL     1      19.715 -21.482  15.183  1.00  0.00     0.041 C 
BRANCH  11  16
ATOM     16  O   UNL     1      22.530 -21.603  16.232  1.00  0.00    -0.388 OA
ATOM     17  H   UNL     1      21.779 -22.181  16.467  1.00  0.00     0.211 HD
ENDBRANCH  11  16
BRANCH  13  18
ATOM     18  O   UNL     1      23.984 -19.125  16.090  1.00  0.00    -0.387 OA
ATOM     19  H   UNL     1      24.036 -18.697  15.212  1.00  0.00     0.211 HD
ENDBRANCH  13  18
BRANCH  14  20
ATOM     20  O   UNL     1      22.277 -17.624  14.590  1.00  0.00    -0.385 OA
ATOM     21  H   UNL     1      23.226 -17.864  14.532  1.00  0.00     0.211 HD
ENDBRANCH  14  20
ENDBRANCH   8   9
ENDBRANCH   7   8
ENDBRANCH   1   7
BRANCH   2  22
ATOM     22  O   UNL     1      17.219 -19.437  17.133  1.00  0.00    -0.387 OA
ATOM     23  H   UNL     1      16.605 -20.187  17.268  1.00  0.00     0.211 HD
ENDBRANCH   2  22
BRANCH   3  24
ATOM     24  O   UNL     1      14.642 -19.506  18.318  1.00  0.00    -0.387 OA
ATOM     25  H   UNL     1      14.615 -20.471  18.485  1.00  0.00     0.211 HD
ENDBRANCH   3  24
BRANCH   5  26
ATOM     26  O   UNL     1      16.180 -16.423  21.660  1.00  0.00    -0.347 OA
BRANCH  26  27
ATOM     27  C   UNL     1      17.127 -15.391  21.963  1.00  0.00     0.200 C 
BRANCH  27  28
ATOM     28  C   UNL     1      16.694 -13.951  21.616  1.00  0.00     0.170 C 
BRANCH  28  29
ATOM     29  C   UNL     1      16.616 -12.932  22.739  1.00  0.00    -0.013 A 
ATOM     30  C   UNL     1      17.302 -13.207  23.938  1.00  0.00     0.056 A 
ATOM     31  C   UNL     1      15.869 -11.744  22.660  1.00  0.00     0.010 A 
ATOM     32  C   UNL     1      17.266 -12.306  24.996  1.00  0.00     0.157 A 
ATOM     33  C   UNL     1      15.819 -10.851  23.736  1.00  0.00     0.050 A 
ATOM     34  C   UNL     1      16.519 -11.139  24.896  1.00  0.00     0.157 A 
BRANCH  32  35
ATOM     35  O   UNL     1      17.976 -12.520  26.145  1.00  0.00    -0.504 OA
ATOM     36  H   UNL     1      18.617 -13.247  25.969  1.00  0.00     0.293 HD
ENDBRANCH  32  35
BRANCH  34  37
ATOM     37  O   UNL     1      16.476 -10.261  25.939  1.00  0.00    -0.504 OA
ATOM     38  H   UNL     1      15.622 -10.446  26.379  1.00  0.00     0.293 HD
ENDBRANCH  34  37
ENDBRANCH  28  29
BRANCH  28  39
ATOM     39  O   UNL     1      15.454 -13.979  20.902  1.00  0.00    -0.386 OA
ATOM     40  H   UNL     1      15.137 -14.907  20.940  1.00  0.00     0.211 HD
ENDBRANCH  28  39
ENDBRANCH  27  28
ENDBRANCH  26  27
ENDBRANCH   5  26
BRANCH   4  41
ATOM     41  O   UNL     1      14.530 -18.640  21.043  1.00  0.00    -0.385 OA
ATOM     42  H   UNL     1      14.479 -19.576  20.765  1.00  0.00     0.211 HD
ENDBRANCH   4  41
TORSDOF 16
ENDMDL
MODEL 9
REMARK VINA RESULT:    -8.540      1.293      2.026
REMARK INTER + INTRA:         -15.907
REMARK INTER:                 -14.991
REMARK INTRA:                  -0.916
REMARK UNBOUND:                -1.625
REMARK SMILES C[C@@H]1O[C@@H](OC[C@H]2O[C@@H](OCC(O)c3ccc(O)c(O)c3)[C@H](O)[C@@H](O)[C@@H]2O)[C@H](O)[C@H](O)[C@H]1O
REMARK SMILES IDX 7 1 26 2 24 3 22 4 9 5 8 6 6 7 5 8 4 9 2 10 32 11 3 12 30 13
REMARK SMILES IDX 28 14 1 15 33 16 31 18 29 20 27 22 25 24 10 26 11 27 12 28
REMARK SMILES IDX 14 29 21 30 15 31 19 32 16 33 17 34 20 35 18 37 13 39 23 41
REMARK H PARENT 33 17 31 19 29 21 27 23 25 25 20 36 18 38 13 40 23 42
ROOT
ATOM      1  C   UNL     1      16.102 -20.228  19.556  1.00  0.00     0.178 C 
ATOM      2  C   UNL     1      14.621 -20.608  19.412  1.00  0.00     0.177 C 
ATOM      3  C   UNL     1      13.880 -20.306  20.714  1.00  0.00     0.179 C 
ATOM      4  C   UNL     1      14.110 -18.859  21.132  1.00  0.00     0.202 C 
ATOM      5  C   UNL     1      15.623 -18.575  21.204  1.00  0.00     0.282 C 
ATOM      6  O   UNL     1      16.233 -18.842  19.940  1.00  0.00    -0.341 OA
ENDROOT
BRANCH   1   7
ATOM      7  C   UNL     1      16.846 -20.452  18.229  1.00  0.00     0.198 C 
BRANCH   7   8
ATOM      8  O   UNL     1      18.133 -19.825  18.305  1.00  0.00    -0.347 OA
BRANCH   8   9
ATOM      9  C   UNL     1      18.300 -18.774  17.351  1.00  0.00     0.281 C 
ATOM     10  C   UNL     1      19.240 -20.235  15.700  1.00  0.00     0.150 C 
ATOM     11  C   UNL     1      20.612 -19.544  15.769  1.00  0.00     0.174 C 
ATOM     12  O   UNL     1      18.192 -19.322  16.027  1.00  0.00    -0.344 OA
ATOM     13  C   UNL     1      20.805 -18.935  17.165  1.00  0.00     0.179 C 
ATOM     14  C   UNL     1      19.636 -18.021  17.532  1.00  0.00     0.202 C 
ATOM     15  C   UNL     1      18.948 -20.774  14.303  1.00  0.00     0.041 C 
BRANCH  11  16
ATOM     16  O   UNL     1      21.690 -20.463  15.497  1.00  0.00    -0.388 OA
ATOM     17  H   UNL     1      21.261 -21.315  15.288  1.00  0.00     0.211 HD
ENDBRANCH  11  16
BRANCH  13  18
ATOM     18  O   UNL     1      22.019 -18.163  17.192  1.00  0.00    -0.387 OA
ATOM     19  H   UNL     1      22.545 -18.525  17.933  1.00  0.00     0.211 HD
ENDBRANCH  13  18
BRANCH  14  20
ATOM     20  O   UNL     1      19.687 -16.842  16.710  1.00  0.00    -0.385 OA
ATOM     21  H   UNL     1      18.802 -16.434  16.809  1.00  0.00     0.211 HD
ENDBRANCH  14  20
ENDBRANCH   8   9
ENDBRANCH   7   8
ENDBRANCH   1   7
BRANCH   2  22
ATOM     22  O   UNL     1      14.469 -21.994  19.099  1.00  0.00    -0.387 OA
ATOM     23  H   UNL     1      14.112 -22.014  18.187  1.00  0.00     0.211 HD
ENDBRANCH   2  22
BRANCH   3  24
ATOM     24  O   UNL     1      12.480 -20.557  20.523  1.00  0.00    -0.387 OA
ATOM     25  H   UNL     1      12.438 -21.338  19.934  1.00  0.00     0.211 HD
ENDBRANCH   3  24
BRANCH   5  26
ATOM     26  O   UNL     1      15.746 -17.188  21.535  1.00  0.00    -0.347 OA
BRANCH  26  27
ATOM     27  C   UNL     1      16.933 -16.554  21.045  1.00  0.00     0.200 C 
BRANCH  27  28
ATOM     28  C   UNL     1      16.771 -15.099  20.555  1.00  0.00     0.170 C 
BRANCH  28  29
ATOM     29  C   UNL     1      16.676 -13.996  21.593  1.00  0.00    -0.013 A 
ATOM     30  C   UNL     1      17.200 -14.242  22.877  1.00  0.00     0.056 A 
ATOM     31  C   UNL     1      16.063 -12.754  21.354  1.00  0.00     0.010 A 
ATOM     32  C   UNL     1      17.142 -13.265  23.864  1.00  0.00     0.157 A 
ATOM     33  C   UNL     1      15.988 -11.781  22.358  1.00  0.00     0.050 A 
ATOM     34  C   UNL     1      16.530 -12.045  23.605  1.00  0.00     0.157 A 
BRANCH  32  35
ATOM     35  O   UNL     1      17.701 -13.456  25.098  1.00  0.00    -0.504 OA
ATOM     36  H   UNL     1      18.480 -12.856  25.168  1.00  0.00     0.293 HD
ENDBRANCH  32  35
BRANCH  34  37
ATOM     37  O   UNL     1      16.464 -11.090  24.578  1.00  0.00    -0.504 OA
ATOM     38  H   UNL     1      15.792 -11.427  25.205  1.00  0.00     0.293 HD
ENDBRANCH  34  37
ENDBRANCH  28  29
BRANCH  28  39
ATOM     39  O   UNL     1      15.661 -15.014  19.657  1.00  0.00    -0.386 OA
ATOM     40  H   UNL     1      14.986 -14.460  20.106  1.00  0.00     0.211 HD
ENDBRANCH  28  39
ENDBRANCH  27  28
ENDBRANCH  26  27
ENDBRANCH   5  26
BRANCH   4  41
ATOM     41  O   UNL     1      13.471 -18.636  22.399  1.00  0.00    -0.385 OA
ATOM     42  H   UNL     1      12.513 -18.620  22.203  1.00  0.00     0.211 HD
ENDBRANCH   4  41
TORSDOF 16
ENDMDL
