MODEL 1
REMARK VINA RESULT:    -7.961      0.000      0.000
REMARK INTER + INTRA:         -13.417
REMARK INTER:                 -12.150
REMARK INTRA:                  -1.267
REMARK UNBOUND:                -1.267
REMARK SMILES CC(C)ON([C@@H](C(=O)N=O)C(C)C)S(=O)(=O)c1ccc(-c2ccccc2)cc1
REMARK SMILES IDX 5 1 14 2 15 3 16 4 17 5 18 6 28 7 19 8 27 9 20 10 21 11
REMARK SMILES IDX 22 12 26 13 23 14 25 15 24 16 4 17 2 18 1 19 3 20 6 21 11 22
REMARK SMILES IDX 12 23 13 24 7 25 8 26 9 27 10 28
REMARK H PARENT
ROOT
ATOM      1  N   UNL     1      17.473 -19.380  17.853  1.00  0.00    -0.064 NA
ENDROOT
BRANCH   1   2
ATOM      2  S   UNL     1      16.174 -18.683  17.662  1.00  0.00     0.265 S 
ATOM      3  O   UNL     1      15.078 -19.593  17.990  1.00  0.00    -0.205 OA
ATOM      4  O   UNL     1      16.016 -18.128  16.311  1.00  0.00    -0.205 OA
BRANCH   2   5
ATOM      5  C   UNL     1      16.251 -17.288  18.862  1.00  0.00     0.084 A 
ATOM      6  C   UNL     1      16.385 -15.946  18.384  1.00  0.00     0.022 A 
ATOM      7  C   UNL     1      16.208 -17.569  20.270  1.00  0.00     0.022 A 
ATOM      8  C   UNL     1      16.470 -14.856  19.359  1.00  0.00     0.010 A 
ATOM      9  C   UNL     1      16.297 -16.479  21.242  1.00  0.00     0.010 A 
ATOM     10  C   UNL     1      16.416 -15.140  20.764  1.00  0.00    -0.018 A 
BRANCH  10  11
ATOM     11  C   UNL     1      16.510 -13.961  21.765  1.00  0.00    -0.018 A 
ATOM     12  C   UNL     1      17.171 -14.152  23.140  1.00  0.00     0.009 A 
ATOM     13  C   UNL     1      15.905 -12.785  21.450  1.00  0.00     0.009 A 
ATOM     14  C   UNL     1      17.220 -13.101  24.036  1.00  0.00     0.001 A 
ATOM     15  C   UNL     1      15.963 -11.595  22.464  1.00  0.00     0.001 A 
ATOM     16  C   UNL     1      16.573 -11.750  23.657  1.00  0.00     0.000 A 
ENDBRANCH  10  11
ENDBRANCH   2   5
ENDBRANCH   1   2
BRANCH   1  17
ATOM     17  O   UNL     1      17.364 -20.610  18.141  1.00  0.00    -0.281 OA
BRANCH  17  18
ATOM     18  C   UNL     1      17.217 -20.997  19.514  1.00  0.00     0.137 C 
ATOM     19  C   UNL     1      16.299 -22.224  19.642  1.00  0.00     0.040 C 
ATOM     20  C   UNL     1      18.574 -21.321  20.141  1.00  0.00     0.040 C 
ENDBRANCH  17  18
ENDBRANCH   1  17
BRANCH   1  21
ATOM     21  C   UNL     1      18.475 -19.071  16.954  1.00  0.00     0.200 C 
BRANCH  21  22
ATOM     22  C   UNL     1      19.331 -20.295  16.495  1.00  0.00     0.013 C 
ATOM     23  C   UNL     1      19.227 -20.584  14.988  1.00  0.00     0.010 C 
ATOM     24  C   UNL     1      20.813 -20.065  16.789  1.00  0.00     0.010 C 
ENDBRANCH  21  22
BRANCH  21  25
ATOM     25  C   UNL     1      19.438 -18.146  17.728  1.00  0.00     0.307 C 
ATOM     26  O   UNL     1      19.965 -17.237  17.173  1.00  0.00    -0.267 OA
BRANCH  25  27
ATOM     27  N   UNL     1      19.701 -18.360  19.133  1.00  0.00     0.010 NA
ATOM     28  O   UNL     1      19.411 -17.515  19.901  1.00  0.00    -0.142 OA
ENDBRANCH  25  27
ENDBRANCH  21  25
ENDBRANCH   1  21
TORSDOF 9
ENDMDL
MODEL 2
REMARK VINA RESULT:    -6.104      1.399      1.909
REMARK INTER + INTRA:         -10.582
REMARK INTER:                  -9.317
REMARK INTRA:                  -1.265
REMARK UNBOUND:                -1.267
REMARK SMILES CC(C)ON([C@@H](C(=O)N=O)C(C)C)S(=O)(=O)c1ccc(-c2ccccc2)cc1
REMARK SMILES IDX 5 1 14 2 15 3 16 4 17 5 18 6 28 7 19 8 27 9 20 10 21 11
REMARK SMILES IDX 22 12 26 13 23 14 25 15 24 16 4 17 2 18 1 19 3 20 6 21 11 22
REMARK SMILES IDX 12 23 13 24 7 25 8 26 9 27 10 28
REMARK H PARENT
ROOT
ATOM      1  N   UNL     1      18.647 -19.847  17.333  1.00  0.00    -0.064 NA
ENDROOT
BRANCH   1   2
ATOM      2  S   UNL     1      17.186 -19.577  17.347  1.00  0.00     0.265 S 
ATOM      3  O   UNL     1      16.476 -20.749  17.855  1.00  0.00    -0.205 OA
ATOM      4  O   UNL     1      16.666 -19.171  16.035  1.00  0.00    -0.205 OA
BRANCH   2   5
ATOM      5  C   UNL     1      17.020 -18.156  18.507  1.00  0.00     0.084 A 
ATOM      6  C   UNL     1      16.308 -16.984  18.099  1.00  0.00     0.022 A 
ATOM      7  C   UNL     1      17.640 -18.229  19.801  1.00  0.00     0.022 A 
ATOM      8  C   UNL     1      16.211 -15.858  19.030  1.00  0.00     0.010 A 
ATOM      9  C   UNL     1      17.546 -17.100  20.728  1.00  0.00     0.010 A 
ATOM     10  C   UNL     1      16.823 -15.939  20.325  1.00  0.00    -0.018 A 
BRANCH  10  11
ATOM     11  C   UNL     1      16.701 -14.726  21.282  1.00  0.00    -0.018 A 
ATOM     12  C   UNL     1      16.056 -13.414  20.806  1.00  0.00     0.009 A 
ATOM     13  C   UNL     1      17.267 -14.807  22.516  1.00  0.00     0.009 A 
ATOM     14  C   UNL     1      15.981 -12.331  21.660  1.00  0.00     0.001 A 
ATOM     15  C   UNL     1      17.180 -13.579  23.483  1.00  0.00     0.001 A 
ATOM     16  C   UNL     1      16.584 -12.438  23.079  1.00  0.00     0.000 A 
ENDBRANCH  10  11
ENDBRANCH   2   5
ENDBRANCH   1   2
BRANCH   1  17
ATOM     17  O   UNL     1      18.960 -21.027  17.678  1.00  0.00    -0.281 OA
BRANCH  17  18
ATOM     18  C   UNL     1      19.637 -21.236  18.924  1.00  0.00     0.137 C 
ATOM     19  C   UNL     1      18.679 -21.819  19.977  1.00  0.00     0.040 C 
ATOM     20  C   UNL     1      20.825 -22.182  18.752  1.00  0.00     0.040 C 
ENDBRANCH  17  18
ENDBRANCH   1  17
BRANCH   1  21
ATOM     21  C   UNL     1      19.357 -19.338  16.263  1.00  0.00     0.200 C 
BRANCH  21  22
ATOM     22  C   UNL     1      19.967 -20.422  15.318  1.00  0.00     0.013 C 
ATOM     23  C   UNL     1      18.976 -20.945  14.265  1.00  0.00     0.010 C 
ATOM     24  C   UNL     1      21.162 -19.863  14.546  1.00  0.00     0.010 C 
ENDBRANCH  21  22
BRANCH  21  25
ATOM     25  C   UNL     1      20.557 -18.599  16.891  1.00  0.00     0.307 C 
ATOM     26  O   UNL     1      21.481 -19.215  17.313  1.00  0.00    -0.267 OA
BRANCH  25  27
ATOM     27  N   UNL     1      20.584 -17.155  16.963  1.00  0.00     0.010 NA
ATOM     28  O   UNL     1      19.778 -16.603  17.619  1.00  0.00    -0.142 OA
ENDBRANCH  25  27
ENDBRANCH  21  25
ENDBRANCH   1  21
TORSDOF 9
ENDMDL
MODEL 3
REMARK VINA RESULT:    -6.099      1.552      2.291
REMARK INTER + INTRA:         -10.575
REMARK INTER:                  -9.869
REMARK INTRA:                  -0.706
REMARK UNBOUND:                -1.267
REMARK SMILES CC(C)ON([C@@H](C(=O)N=O)C(C)C)S(=O)(=O)c1ccc(-c2ccccc2)cc1
REMARK SMILES IDX 5 1 14 2 15 3 16 4 17 5 18 6 28 7 19 8 27 9 20 10 21 11
REMARK SMILES IDX 22 12 26 13 23 14 25 15 24 16 4 17 2 18 1 19 3 20 6 21 11 22
REMARK SMILES IDX 12 23 13 24 7 25 8 26 9 27 10 28
REMARK H PARENT
ROOT
ATOM      1  N   UNL     1      17.303 -18.697  18.534  1.00  0.00    -0.064 NA
ENDROOT
BRANCH   1   2
ATOM      2  S   UNL     1      17.066 -17.390  17.866  1.00  0.00     0.265 S 
ATOM      3  O   UNL     1      15.832 -17.456  17.085  1.00  0.00    -0.205 OA
ATOM      4  O   UNL     1      18.197 -16.960  17.033  1.00  0.00    -0.205 OA
BRANCH   2   5
ATOM      5  C   UNL     1      16.892 -16.211  19.270  1.00  0.00     0.084 A 
ATOM      6  C   UNL     1      16.390 -14.893  19.033  1.00  0.00     0.022 A 
ATOM      7  C   UNL     1      17.297 -16.621  20.586  1.00  0.00     0.022 A 
ATOM      8  C   UNL     1      16.285 -13.966  20.162  1.00  0.00     0.010 A 
ATOM      9  C   UNL     1      17.195 -15.692  21.711  1.00  0.00     0.010 A 
ATOM     10  C   UNL     1      16.680 -14.382  21.476  1.00  0.00    -0.018 A 
BRANCH  10  11
ATOM     11  C   UNL     1      16.555 -13.373  22.645  1.00  0.00    -0.018 A 
ATOM     12  C   UNL     1      15.851 -12.021  22.442  1.00  0.00     0.009 A 
ATOM     13  C   UNL     1      17.170 -13.657  23.824  1.00  0.00     0.009 A 
ATOM     14  C   UNL     1      15.774 -11.118  23.484  1.00  0.00     0.001 A 
ATOM     15  C   UNL     1      17.081 -12.633  25.004  1.00  0.00     0.001 A 
ATOM     16  C   UNL     1      16.434 -11.462  24.838  1.00  0.00     0.000 A 
ENDBRANCH  10  11
ENDBRANCH   2   5
ENDBRANCH   1   2
BRANCH   1  17
ATOM     17  O   UNL     1      16.361 -19.533  18.385  1.00  0.00    -0.281 OA
BRANCH  17  18
ATOM     18  C   UNL     1      15.673 -20.025  19.543  1.00  0.00     0.137 C 
ATOM     19  C   UNL     1      14.454 -19.147  19.870  1.00  0.00     0.040 C 
ATOM     20  C   UNL     1      15.209 -21.467  19.335  1.00  0.00     0.040 C 
ENDBRANCH  17  18
ENDBRANCH   1  17
BRANCH   1  21
ATOM     21  C   UNL     1      18.578 -19.218  18.430  1.00  0.00     0.200 C 
BRANCH  21  22
ATOM     22  C   UNL     1      18.694 -20.452  17.478  1.00  0.00     0.013 C 
ATOM     23  C   UNL     1      18.533 -20.095  15.991  1.00  0.00     0.010 C 
ATOM     24  C   UNL     1      20.063 -21.119  17.615  1.00  0.00     0.010 C 
ENDBRANCH  21  22
BRANCH  21  25
ATOM     25  C   UNL     1      18.915 -19.740  19.843  1.00  0.00     0.307 C 
ATOM     26  O   UNL     1      19.400 -19.012  20.646  1.00  0.00    -0.267 OA
BRANCH  25  27
ATOM     27  N   UNL     1      18.632 -21.109  20.214  1.00  0.00     0.010 NA
ATOM     28  O   UNL     1      18.981 -21.495  21.271  1.00  0.00    -0.142 OA
ENDBRANCH  25  27
ENDBRANCH  21  25
ENDBRANCH   1  21
TORSDOF 9
ENDMDL
MODEL 4
REMARK VINA RESULT:    -6.054      2.207      7.919
REMARK INTER + INTRA:         -10.506
REMARK INTER:                  -9.906
REMARK INTRA:                  -0.600
REMARK UNBOUND:                -1.267
REMARK SMILES CC(C)ON([C@@H](C(=O)N=O)C(C)C)S(=O)(=O)c1ccc(-c2ccccc2)cc1
REMARK SMILES IDX 5 1 14 2 15 3 16 4 17 5 18 6 28 7 19 8 27 9 20 10 21 11
REMARK SMILES IDX 22 12 26 13 23 14 25 15 24 16 4 17 2 18 1 19 3 20 6 21 11 22
REMARK SMILES IDX 12 23 13 24 7 25 8 26 9 27 10 28
REMARK H PARENT
ROOT
ATOM      1  N   UNL     1      17.180 -18.045  19.626  1.00  0.00    -0.064 NA
ENDROOT
BRANCH   1   2
ATOM      2  S   UNL     1      18.552 -18.581  19.825  1.00  0.00     0.265 S 
ATOM      3  O   UNL     1      18.521 -19.649  20.822  1.00  0.00    -0.205 OA
ATOM      4  O   UNL     1      19.524 -17.542  20.193  1.00  0.00    -0.205 OA
BRANCH   2   5
ATOM      5  C   UNL     1      19.002 -19.243  18.167  1.00  0.00     0.084 A 
ATOM      6  C   UNL     1      18.633 -20.578  17.811  1.00  0.00     0.022 A 
ATOM      7  C   UNL     1      19.752 -18.418  17.260  1.00  0.00     0.022 A 
ATOM      8  C   UNL     1      19.025 -21.090  16.495  1.00  0.00     0.010 A 
ATOM      9  C   UNL     1      20.145 -18.933  15.948  1.00  0.00     0.010 A 
ATOM     10  C   UNL     1      19.764 -20.260  15.589  1.00  0.00    -0.018 A 
BRANCH  10  11
ATOM     11  C   UNL     1      20.161 -20.837  14.207  1.00  0.00    -0.018 A 
ATOM     12  C   UNL     1      19.133 -21.592  13.348  1.00  0.00     0.009 A 
ATOM     13  C   UNL     1      21.460 -20.757  13.813  1.00  0.00     0.009 A 
ATOM     14  C   UNL     1      19.508 -22.128  12.132  1.00  0.00     0.001 A 
ATOM     15  C   UNL     1      21.884 -21.364  12.434  1.00  0.00     0.001 A 
ATOM     16  C   UNL     1      20.975 -21.996  11.663  1.00  0.00     0.000 A 
ENDBRANCH  10  11
ENDBRANCH   2   5
ENDBRANCH   1   2
BRANCH   1  17
ATOM     17  O   UNL     1      16.358 -18.376  20.534  1.00  0.00    -0.281 OA
BRANCH  17  18
ATOM     18  C   UNL     1      15.146 -19.050  20.168  1.00  0.00     0.137 C 
ATOM     19  C   UNL     1      15.393 -20.555  19.974  1.00  0.00     0.040 C 
ATOM     20  C   UNL     1      14.066 -18.854  21.233  1.00  0.00     0.040 C 
ENDBRANCH  17  18
ENDBRANCH   1  17
BRANCH   1  21
ATOM     21  C   UNL     1      17.087 -16.736  19.195  1.00  0.00     0.200 C 
BRANCH  21  22
ATOM     22  C   UNL     1      16.219 -15.814  20.110  1.00  0.00     0.013 C 
ATOM     23  C   UNL     1      16.781 -15.659  21.532  1.00  0.00     0.010 C 
ATOM     24  C   UNL     1      16.120 -14.405  19.528  1.00  0.00     0.010 C 
ENDBRANCH  21  22
BRANCH  21  25
ATOM     25  C   UNL     1      16.347 -16.810  17.843  1.00  0.00     0.307 C 
ATOM     26  O   UNL     1      16.264 -15.845  17.156  1.00  0.00    -0.267 OA
BRANCH  25  27
ATOM     27  N   UNL     1      15.760 -18.050  17.386  1.00  0.00     0.010 NA
ATOM     28  O   UNL     1      16.079 -18.478  16.337  1.00  0.00    -0.142 OA
ENDBRANCH  25  27
ENDBRANCH  21  25
ENDBRANCH   1  21
TORSDOF 9
ENDMDL
MODEL 5
REMARK VINA RESULT:    -5.322      1.937      2.867
REMARK INTER + INTRA:          -9.389
REMARK INTER:                  -9.087
REMARK INTRA:                  -0.301
REMARK UNBOUND:                -1.267
REMARK SMILES CC(C)ON([C@@H](C(=O)N=O)C(C)C)S(=O)(=O)c1ccc(-c2ccccc2)cc1
REMARK SMILES IDX 5 1 14 2 15 3 16 4 17 5 18 6 28 7 19 8 27 9 20 10 21 11
REMARK SMILES IDX 22 12 26 13 23 14 25 15 24 16 4 17 2 18 1 19 3 20 6 21 11 22
REMARK SMILES IDX 12 23 13 24 7 25 8 26 9 27 10 28
REMARK H PARENT
ROOT
ATOM      1  N   UNL     1      16.461 -19.575  19.288  1.00  0.00    -0.064 NA
ENDROOT
BRANCH   1   2
ATOM      2  S   UNL     1      16.602 -18.393  18.397  1.00  0.00     0.265 S 
ATOM      3  O   UNL     1      15.464 -18.331  17.482  1.00  0.00    -0.205 OA
ATOM      4  O   UNL     1      17.874 -18.379  17.663  1.00  0.00    -0.205 OA
BRANCH   2   5
ATOM      5  C   UNL     1      16.584 -16.968  19.564  1.00  0.00     0.084 A 
ATOM      6  C   UNL     1      15.909 -15.761  19.200  1.00  0.00     0.022 A 
ATOM      7  C   UNL     1      17.280 -17.077  20.816  1.00  0.00     0.022 A 
ATOM      8  C   UNL     1      15.931 -14.633  20.135  1.00  0.00     0.010 A 
ATOM      9  C   UNL     1      17.304 -15.947  21.746  1.00  0.00     0.010 A 
ATOM     10  C   UNL     1      16.618 -14.748  21.389  1.00  0.00    -0.018 A 
BRANCH  10  11
ATOM     11  C   UNL     1      16.620 -13.534  22.350  1.00  0.00    -0.018 A 
ATOM     12  C   UNL     1      17.218 -13.653  23.762  1.00  0.00     0.009 A 
ATOM     13  C   UNL     1      15.990 -12.392  21.965  1.00  0.00     0.009 A 
ATOM     14  C   UNL     1      17.186 -12.571  24.620  1.00  0.00     0.001 A 
ATOM     15  C   UNL     1      15.955 -11.167  22.938  1.00  0.00     0.001 A 
ATOM     16  C   UNL     1      16.510 -11.259  24.164  1.00  0.00     0.000 A 
ENDBRANCH  10  11
ENDBRANCH   2   5
ENDBRANCH   1   2
BRANCH   1  17
ATOM     17  O   UNL     1      15.293 -19.735  19.756  1.00  0.00    -0.281 OA
BRANCH  17  18
ATOM     18  C   UNL     1      15.014 -19.313  21.098  1.00  0.00     0.137 C 
ATOM     19  C   UNL     1      13.620 -18.670  21.191  1.00  0.00     0.040 C 
ATOM     20  C   UNL     1      15.087 -20.491  22.070  1.00  0.00     0.040 C 
ENDBRANCH  17  18
ENDBRANCH   1  17
BRANCH   1  21
ATOM     21  C   UNL     1      17.095 -20.732  18.879  1.00  0.00     0.200 C 
BRANCH  21  22
ATOM     22  C   UNL     1      16.424 -22.050  19.384  1.00  0.00     0.013 C 
ATOM     23  C   UNL     1      15.084 -22.357  18.694  1.00  0.00     0.010 C 
ATOM     24  C   UNL     1      17.328 -23.255  19.127  1.00  0.00     0.010 C 
ENDBRANCH  21  22
BRANCH  21  25
ATOM     25  C   UNL     1      18.487 -20.684  19.545  1.00  0.00     0.307 C 
ATOM     26  O   UNL     1      18.578 -20.632  20.728  1.00  0.00    -0.267 OA
BRANCH  25  27
ATOM     27  N   UNL     1      19.692 -20.716  18.748  1.00  0.00     0.010 NA
ATOM     28  O   UNL     1      20.263 -21.738  18.622  1.00  0.00    -0.142 OA
ENDBRANCH  25  27
ENDBRANCH  21  25
ENDBRANCH   1  21
TORSDOF 9
ENDMDL
MODEL 6
REMARK VINA RESULT:    -4.995      2.719      8.894
REMARK INTER + INTRA:          -8.889
REMARK INTER:                  -7.446
REMARK INTRA:                  -1.443
REMARK UNBOUND:                -1.267
REMARK SMILES CC(C)ON([C@@H](C(=O)N=O)C(C)C)S(=O)(=O)c1ccc(-c2ccccc2)cc1
REMARK SMILES IDX 5 1 14 2 15 3 16 4 17 5 18 6 28 7 19 8 27 9 20 10 21 11
REMARK SMILES IDX 22 12 26 13 23 14 25 15 24 16 4 17 2 18 1 19 3 20 6 21 11 22
REMARK SMILES IDX 12 23 13 24 7 25 8 26 9 27 10 28
REMARK H PARENT
ROOT
ATOM      1  N   UNL     1      18.712 -18.554  17.878  1.00  0.00    -0.064 NA
ENDROOT
BRANCH   1   2
ATOM      2  S   UNL     1      19.860 -18.258  16.981  1.00  0.00     0.265 S 
ATOM      3  O   UNL     1      21.105 -18.317  17.744  1.00  0.00    -0.205 OA
ATOM      4  O   UNL     1      19.725 -16.971  16.285  1.00  0.00    -0.205 OA
BRANCH   2   5
ATOM      5  C   UNL     1      19.791 -19.609  15.731  1.00  0.00     0.084 A 
ATOM      6  C   UNL     1      20.934 -20.445  15.525  1.00  0.00     0.022 A 
ATOM      7  C   UNL     1      18.598 -19.785  14.952  1.00  0.00     0.022 A 
ATOM      8  C   UNL     1      20.863 -21.496  14.507  1.00  0.00     0.010 A 
ATOM      9  C   UNL     1      18.531 -20.834  13.933  1.00  0.00     0.010 A 
ATOM     10  C   UNL     1      19.666 -21.676  13.738  1.00  0.00    -0.018 A 
BRANCH  10  11
ATOM     11  C   UNL     1      19.630 -22.798  12.670  1.00  0.00    -0.018 A 
ATOM     12  C   UNL     1      18.607 -22.754  11.523  1.00  0.00     0.009 A 
ATOM     13  C   UNL     1      20.447 -23.874  12.823  1.00  0.00     0.009 A 
ATOM     14  C   UNL     1      18.565 -23.777  10.595  1.00  0.00     0.001 A 
ATOM     15  C   UNL     1      20.399 -25.030  11.770  1.00  0.00     0.001 A 
ATOM     16  C   UNL     1      19.526 -24.978  10.743  1.00  0.00     0.000 A 
ENDBRANCH  10  11
ENDBRANCH   2   5
ENDBRANCH   1   2
BRANCH   1  17
ATOM     17  O   UNL     1      18.964 -19.413  18.777  1.00  0.00    -0.281 OA
BRANCH  17  18
ATOM     18  C   UNL     1      18.578 -20.778  18.569  1.00  0.00     0.137 C 
ATOM     19  C   UNL     1      19.746 -21.731  18.873  1.00  0.00     0.040 C 
ATOM     20  C   UNL     1      17.385 -21.151  19.449  1.00  0.00     0.040 C 
ENDBRANCH  17  18
ENDBRANCH   1  17
BRANCH   1  21
ATOM     21  C   UNL     1      17.959 -17.472  18.291  1.00  0.00     0.200 C 
BRANCH  21  22
ATOM     22  C   UNL     1      17.470 -17.553  19.773  1.00  0.00     0.013 C 
ATOM     23  C   UNL     1      18.580 -17.272  20.800  1.00  0.00     0.010 C 
ATOM     24  C   UNL     1      16.366 -16.531  20.040  1.00  0.00     0.010 C 
ENDBRANCH  21  22
BRANCH  21  25
ATOM     25  C   UNL     1      16.685 -17.515  17.422  1.00  0.00     0.307 C 
ATOM     26  O   UNL     1      16.269 -16.519  16.925  1.00  0.00    -0.267 OA
BRANCH  25  27
ATOM     27  N   UNL     1      15.990 -18.761  17.185  1.00  0.00     0.010 NA
ATOM     28  O   UNL     1      15.051 -19.022  17.846  1.00  0.00    -0.142 OA
ENDBRANCH  25  27
ENDBRANCH  21  25
ENDBRANCH   1  21
TORSDOF 9
ENDMDL
