REMARK SMILES CC(C)ON([C@@H](C(=O)N=O)C(C)C)S(=O)(=O)c1ccc(-c2ccccc2)cc1
REMARK SMILES IDX 5 1 14 2 15 3 16 4 17 5 18 6 28 7 19 8 27 9 20 10 21 11
REMARK SMILES IDX 22 12 26 13 23 14 25 15 24 16 4 17 2 18 1 19 3 20 6 21 11 22
REMARK SMILES IDX 12 23 13 24 7 25 8 26 9 27 10 28
REMARK H PARENT
ROOT
ATOM      1  N   UNL     1      17.964 -19.879  17.956  1.00  0.00    -0.064 NA
ENDROOT
BRANCH   1   2
ATOM      2  S   UNL     1      16.579 -19.345  17.877  1.00  0.00     0.265 S 
ATOM      3  O   UNL     1      15.642 -20.336  18.402  1.00  0.00    -0.205 OA
ATOM      4  O   UNL     1      16.203 -18.927  16.520  1.00  0.00    -0.205 OA
BRANCH   2   5
ATOM      5  C   UNL     1      16.629 -17.853  18.956  1.00  0.00     0.084 A 
ATOM      6  C   UNL     1      16.756 -16.555  18.368  1.00  0.00     0.022 A 
ATOM      7  C   UNL     1      16.574 -18.015  20.382  1.00  0.00     0.022 A 
ATOM      8  C   UNL     1      16.819 -15.386  19.249  1.00  0.00     0.010 A 
ATOM      9  C   UNL     1      16.641 -16.846  21.260  1.00  0.00     0.010 A 
ATOM     10  C   UNL     1      16.753 -15.551  20.672  1.00  0.00    -0.018 A 
BRANCH  10  11
ATOM     11  C   UNL     1      16.824 -14.291  21.571  1.00  0.00    -0.018 A 
ATOM     12  C   UNL     1      17.518 -14.345  22.942  1.00  0.00     0.009 A 
ATOM     13  C   UNL     1      16.172 -13.166  21.174  1.00  0.00     0.009 A 
ATOM     14  C   UNL     1      17.547 -13.223  23.747  1.00  0.00     0.001 A 
ATOM     15  C   UNL     1      16.207 -11.895  22.086  1.00  0.00     0.001 A 
ATOM     16  C   UNL     1      16.845 -11.930  23.274  1.00  0.00     0.000 A 
ENDBRANCH  10  11
ENDBRANCH   2   5
ENDBRANCH   1   2
BRANCH   1  17
ATOM     17  O   UNL     1      18.035 -21.078  18.363  1.00  0.00    -0.281 OA
BRANCH  17  18
ATOM     18  C   UNL     1      18.321 -21.332  19.745  1.00  0.00     0.137 C 
ATOM     19  C   UNL     1      17.360 -22.386  20.319  1.00  0.00     0.040 C 
ATOM     20  C   UNL     1      19.760 -21.815  19.928  1.00  0.00     0.040 C 
ENDBRANCH  17  18
ENDBRANCH   1  17
BRANCH   1  21
ATOM     21  C   UNL     1      18.806 -19.561  16.908  1.00  0.00     0.200 C 
BRANCH  21  22
ATOM     22  C   UNL     1      19.866 -20.660  16.575  1.00  0.00     0.013 C 
ATOM     23  C   UNL     1      19.324 -21.779  15.671  1.00  0.00     0.010 C 
ATOM     24  C   UNL     1      21.065 -20.057  15.844  1.00  0.00     0.010 C 
ENDBRANCH  21  22
BRANCH  21  25
ATOM     25  C   UNL     1      19.606 -18.334  17.394  1.00  0.00     0.307 C 
ATOM     26  O   UNL     1      20.280 -18.411  18.369  1.00  0.00    -0.267 OA
BRANCH  25  27
ATOM     27  N   UNL     1      19.562 -17.085  16.667  1.00  0.00     0.010 NA
ATOM     28  O   UNL     1      20.205 -16.178  17.055  1.00  0.00    -0.142 OA
ENDBRANCH  25  27
ENDBRANCH  21  25
ENDBRANCH   1  21
TORSDOF 9
