MODEL 1
REMARK VINA RESULT:    -9.278      0.000      0.000
REMARK INTER + INTRA:         -14.784
REMARK INTER:                 -14.159
REMARK INTRA:                  -0.626
REMARK UNBOUND:                -0.626
REMARK SMILES CC(C)ON([C@@H](C(=O)N=O)C(C)C)S(=O)(=O)c1ccc(-c2ccccc2)cc1
REMARK SMILES IDX 5 1 14 2 15 3 16 4 17 5 18 6 28 7 19 8 27 9 20 10 21 11
REMARK SMILES IDX 22 12 26 13 23 14 25 15 24 16 4 17 2 18 1 19 3 20 6 21 11 22
REMARK SMILES IDX 12 23 13 24 7 25 8 26 9 27 10 28
REMARK H PARENT
ROOT
ATOM      1  N   UNL     1      17.257 -19.222  18.338  1.00  0.00    -0.064 NA
ENDROOT
BRANCH   1   2
ATOM      2  S   UNL     1      16.047 -18.407  18.053  1.00  0.00     0.265 S 
ATOM      3  O   UNL     1      14.849 -19.195  18.336  1.00  0.00    -0.205 OA
ATOM      4  O   UNL     1      16.023 -17.879  16.682  1.00  0.00    -0.205 OA
BRANCH   2   5
ATOM      5  C   UNL     1      16.194 -16.992  19.222  1.00  0.00     0.084 A 
ATOM      6  C   UNL     1      16.310 -17.240  20.627  1.00  0.00     0.022 A 
ATOM      7  C   UNL     1      16.154 -15.651  18.711  1.00  0.00     0.022 A 
ATOM      8  C   UNL     1      16.400 -16.097  21.538  1.00  0.00     0.010 A 
ATOM      9  C   UNL     1      16.240 -14.510  19.624  1.00  0.00     0.010 A 
ATOM     10  C   UNL     1      16.371 -14.759  21.023  1.00  0.00    -0.018 A 
BRANCH  10  11
ATOM     11  C   UNL     1      16.467 -13.576  22.018  1.00  0.00    -0.018 A 
ATOM     12  C   UNL     1      17.059 -13.779  23.423  1.00  0.00     0.009 A 
ATOM     13  C   UNL     1      15.923 -12.380  21.668  1.00  0.00     0.009 A 
ATOM     14  C   UNL     1      17.110 -12.723  24.311  1.00  0.00     0.001 A 
ATOM     15  C   UNL     1      15.982 -11.184  22.676  1.00  0.00     0.001 A 
ATOM     16  C   UNL     1      16.533 -11.351  23.896  1.00  0.00     0.000 A 
ENDBRANCH  10  11
ENDBRANCH   2   5
ENDBRANCH   1   2
BRANCH   1  17
ATOM     17  O   UNL     1      17.008 -20.378  18.798  1.00  0.00    -0.281 OA
BRANCH  17  18
ATOM     18  C   UNL     1      17.153 -20.618  20.204  1.00  0.00     0.137 C 
ATOM     19  C   UNL     1      15.816 -21.055  20.826  1.00  0.00     0.040 C 
ATOM     20  C   UNL     1      18.204 -21.695  20.471  1.00  0.00     0.040 C 
ENDBRANCH  17  18
ENDBRANCH   1  17
BRANCH   1  21
ATOM     21  C   UNL     1      18.271 -19.166  17.402  1.00  0.00     0.200 C 
BRANCH  21  22
ATOM     22  C   UNL     1      18.846 -20.559  16.987  1.00  0.00     0.013 C 
ATOM     23  C   UNL     1      19.178 -20.663  15.490  1.00  0.00     0.010 C 
ATOM     24  C   UNL     1      20.142 -20.860  17.739  1.00  0.00     0.010 C 
ENDBRANCH  21  22
BRANCH  21  25
ATOM     25  C   UNL     1      19.427 -18.423  18.105  1.00  0.00     0.307 C 
ATOM     26  O   UNL     1      19.380 -18.221  19.274  1.00  0.00    -0.267 OA
BRANCH  25  27
ATOM     27  N   UNL     1      20.585 -17.980  17.361  1.00  0.00     0.010 NA
ATOM     28  O   UNL     1      20.491 -17.026  16.678  1.00  0.00    -0.142 OA
ENDBRANCH  25  27
ENDBRANCH  21  25
ENDBRANCH   1  21
TORSDOF 9
ENDMDL
MODEL 2
REMARK VINA RESULT:    -8.517      1.194      1.764
REMARK INTER + INTRA:         -13.624
REMARK INTER:                 -12.738
REMARK INTRA:                  -0.885
REMARK UNBOUND:                -0.626
REMARK SMILES CC(C)ON([C@@H](C(=O)N=O)C(C)C)S(=O)(=O)c1ccc(-c2ccccc2)cc1
REMARK SMILES IDX 5 1 14 2 15 3 16 4 17 5 18 6 28 7 19 8 27 9 20 10 21 11
REMARK SMILES IDX 22 12 26 13 23 14 25 15 24 16 4 17 2 18 1 19 3 20 6 21 11 22
REMARK SMILES IDX 12 23 13 24 7 25 8 26 9 27 10 28
REMARK H PARENT
ROOT
ATOM      1  N   UNL     1      18.180 -19.662  17.663  1.00  0.00    -0.064 NA
ENDROOT
BRANCH   1   2
ATOM      2  S   UNL     1      16.758 -19.231  17.616  1.00  0.00     0.265 S 
ATOM      3  O   UNL     1      15.903 -20.308  18.111  1.00  0.00    -0.205 OA
ATOM      4  O   UNL     1      16.337 -18.792  16.279  1.00  0.00    -0.205 OA
BRANCH   2   5
ATOM      5  C   UNL     1      16.708 -17.780  18.751  1.00  0.00     0.084 A 
ATOM      6  C   UNL     1      16.942 -17.965  20.150  1.00  0.00     0.022 A 
ATOM      7  C   UNL     1      16.400 -16.482  18.219  1.00  0.00     0.022 A 
ATOM      8  C   UNL     1      16.872 -16.800  21.035  1.00  0.00     0.010 A 
ATOM      9  C   UNL     1      16.326 -15.321  19.106  1.00  0.00     0.010 A 
ATOM     10  C   UNL     1      16.574 -15.503  20.499  1.00  0.00    -0.018 A 
BRANCH  10  11
ATOM     11  C   UNL     1      16.507 -14.295  21.467  1.00  0.00    -0.018 A 
ATOM     12  C   UNL     1      15.919 -12.952  21.004  1.00  0.00     0.009 A 
ATOM     13  C   UNL     1      17.072 -14.411  22.698  1.00  0.00     0.009 A 
ATOM     14  C   UNL     1      15.894 -11.874  21.867  1.00  0.00     0.001 A 
ATOM     15  C   UNL     1      17.041 -13.189  23.675  1.00  0.00     0.001 A 
ATOM     16  C   UNL     1      16.495 -12.020  23.283  1.00  0.00     0.000 A 
ENDBRANCH  10  11
ENDBRANCH   2   5
ENDBRANCH   1   2
BRANCH   1  17
ATOM     17  O   UNL     1      18.353 -20.826  18.136  1.00  0.00    -0.281 OA
BRANCH  17  18
ATOM     18  C   UNL     1      18.963 -20.974  19.425  1.00  0.00     0.137 C 
ATOM     19  C   UNL     1      17.993 -21.633  20.418  1.00  0.00     0.040 C 
ATOM     20  C   UNL     1      20.236 -21.817  19.336  1.00  0.00     0.040 C 
ENDBRANCH  17  18
ENDBRANCH   1  17
BRANCH   1  21
ATOM     21  C   UNL     1      18.953 -19.350  16.562  1.00  0.00     0.200 C 
BRANCH  21  22
ATOM     22  C   UNL     1      19.836 -20.529  16.039  1.00  0.00     0.013 C 
ATOM     23  C   UNL     1      19.033 -21.801  15.722  1.00  0.00     0.010 C 
ATOM     24  C   UNL     1      20.555 -20.140  14.748  1.00  0.00     0.010 C 
ENDBRANCH  21  22
BRANCH  21  25
ATOM     25  C   UNL     1      19.938 -18.270  17.055  1.00  0.00     0.307 C 
ATOM     26  O   UNL     1      19.639 -17.122  17.000  1.00  0.00    -0.267 OA
BRANCH  25  27
ATOM     27  N   UNL     1      21.225 -18.635  17.604  1.00  0.00     0.010 NA
ATOM     28  O   UNL     1      22.198 -18.167  17.133  1.00  0.00    -0.142 OA
ENDBRANCH  25  27
ENDBRANCH  21  25
ENDBRANCH   1  21
TORSDOF 9
ENDMDL
MODEL 3
REMARK VINA RESULT:    -8.089      1.625      2.791
REMARK INTER + INTRA:         -12.970
REMARK INTER:                 -12.192
REMARK INTRA:                  -0.778
REMARK UNBOUND:                -0.626
REMARK SMILES CC(C)ON([C@@H](C(=O)N=O)C(C)C)S(=O)(=O)c1ccc(-c2ccccc2)cc1
REMARK SMILES IDX 5 1 14 2 15 3 16 4 17 5 18 6 28 7 19 8 27 9 20 10 21 11
REMARK SMILES IDX 22 12 26 13 23 14 25 15 24 16 4 17 2 18 1 19 3 20 6 21 11 22
REMARK SMILES IDX 12 23 13 24 7 25 8 26 9 27 10 28
REMARK H PARENT
ROOT
ATOM      1  N   UNL     1      17.049 -18.086  18.961  1.00  0.00    -0.064 NA
ENDROOT
BRANCH   1   2
ATOM      2  S   UNL     1      17.079 -16.725  18.363  1.00  0.00     0.265 S 
ATOM      3  O   UNL     1      15.958 -16.573  17.437  1.00  0.00    -0.205 OA
ATOM      4  O   UNL     1      18.355 -16.417  17.705  1.00  0.00    -0.205 OA
BRANCH   2   5
ATOM      5  C   UNL     1      16.885 -15.610  19.816  1.00  0.00     0.084 A 
ATOM      6  C   UNL     1      16.269 -14.329  19.651  1.00  0.00     0.022 A 
ATOM      7  C   UNL     1      17.388 -16.028  21.095  1.00  0.00     0.022 A 
ATOM      8  C   UNL     1      16.149 -13.450  20.818  1.00  0.00     0.010 A 
ATOM      9  C   UNL     1      17.271 -15.147  22.257  1.00  0.00     0.010 A 
ATOM     10  C   UNL     1      16.643 -13.876  22.095  1.00  0.00    -0.018 A 
BRANCH  10  11
ATOM     11  C   UNL     1      16.500 -12.918  23.304  1.00  0.00    -0.018 A 
ATOM     12  C   UNL     1      15.743 -11.587  23.164  1.00  0.00     0.009 A 
ATOM     13  C   UNL     1      17.143 -13.225  24.462  1.00  0.00     0.009 A 
ATOM     14  C   UNL     1      15.649 -10.728  24.242  1.00  0.00     0.001 A 
ATOM     15  C   UNL     1      17.035 -12.252  25.683  1.00  0.00     0.001 A 
ATOM     16  C   UNL     1      16.342 -11.099  25.572  1.00  0.00     0.000 A 
ENDBRANCH  10  11
ENDBRANCH   2   5
ENDBRANCH   1   2
BRANCH   1  17
ATOM     17  O   UNL     1      15.891 -18.600  19.021  1.00  0.00    -0.281 OA
BRANCH  17  18
ATOM     18  C   UNL     1      15.390 -19.052  20.286  1.00  0.00     0.137 C 
ATOM     19  C   UNL     1      14.456 -18.003  20.911  1.00  0.00     0.040 C 
ATOM     20  C   UNL     1      14.633 -20.371  20.138  1.00  0.00     0.040 C 
ENDBRANCH  17  18
ENDBRANCH   1  17
BRANCH   1  21
ATOM     21  C   UNL     1      18.059 -18.947  18.579  1.00  0.00     0.200 C 
BRANCH  21  22
ATOM     22  C   UNL     1      17.578 -20.173  17.738  1.00  0.00     0.013 C 
ATOM     23  C   UNL     1      16.869 -19.779  16.432  1.00  0.00     0.010 C 
ATOM     24  C   UNL     1      18.759 -21.057  17.338  1.00  0.00     0.010 C 
ENDBRANCH  21  22
BRANCH  21  25
ATOM     25  C   UNL     1      18.610 -19.529  19.898  1.00  0.00     0.307 C 
ATOM     26  O   UNL     1      19.353 -18.887  20.567  1.00  0.00    -0.267 OA
BRANCH  25  27
ATOM     27  N   UNL     1      18.222 -20.848  20.346  1.00  0.00     0.010 NA
ATOM     28  O   UNL     1      19.045 -21.560  20.796  1.00  0.00    -0.142 OA
ENDBRANCH  25  27
ENDBRANCH  21  25
ENDBRANCH   1  21
TORSDOF 9
ENDMDL
MODEL 4
REMARK VINA RESULT:    -7.676      1.827      2.520
REMARK INTER + INTRA:         -12.340
REMARK INTER:                 -11.752
REMARK INTRA:                  -0.587
REMARK UNBOUND:                -0.626
REMARK SMILES CC(C)ON([C@@H](C(=O)N=O)C(C)C)S(=O)(=O)c1ccc(-c2ccccc2)cc1
REMARK SMILES IDX 5 1 14 2 15 3 16 4 17 5 18 6 28 7 19 8 27 9 20 10 21 11
REMARK SMILES IDX 22 12 26 13 23 14 25 15 24 16 4 17 2 18 1 19 3 20 6 21 11 22
REMARK SMILES IDX 12 23 13 24 7 25 8 26 9 27 10 28
REMARK H PARENT
ROOT
ATOM      1  N   UNL     1      16.611 -19.797  19.302  1.00  0.00    -0.064 NA
ENDROOT
BRANCH   1   2
ATOM      2  S   UNL     1      16.815 -18.658  18.369  1.00  0.00     0.265 S 
ATOM      3  O   UNL     1      15.719 -18.615  17.403  1.00  0.00    -0.205 OA
ATOM      4  O   UNL     1      18.118 -18.700  17.691  1.00  0.00    -0.205 OA
BRANCH   2   5
ATOM      5  C   UNL     1      16.777 -17.183  19.472  1.00  0.00     0.084 A 
ATOM      6  C   UNL     1      17.511 -17.195  20.700  1.00  0.00     0.022 A 
ATOM      7  C   UNL     1      15.980 -16.048  19.099  1.00  0.00     0.022 A 
ATOM      8  C   UNL     1      17.444 -16.020  21.571  1.00  0.00     0.010 A 
ATOM      9  C   UNL     1      15.911 -14.876  19.974  1.00  0.00     0.010 A 
ATOM     10  C   UNL     1      16.655 -14.884  21.191  1.00  0.00    -0.018 A 
BRANCH  10  11
ATOM     11  C   UNL     1      16.608 -13.660  22.140  1.00  0.00    -0.018 A 
ATOM     12  C   UNL     1      17.148 -13.760  23.576  1.00  0.00     0.009 A 
ATOM     13  C   UNL     1      15.987 -12.527  21.717  1.00  0.00     0.009 A 
ATOM     14  C   UNL     1      17.072 -12.671  24.421  1.00  0.00     0.001 A 
ATOM     15  C   UNL     1      15.902 -11.293  22.675  1.00  0.00     0.001 A 
ATOM     16  C   UNL     1      16.406 -11.368  23.924  1.00  0.00     0.000 A 
ENDBRANCH  10  11
ENDBRANCH   2   5
ENDBRANCH   1   2
BRANCH   1  17
ATOM     17  O   UNL     1      15.444 -19.862  19.793  1.00  0.00    -0.281 OA
BRANCH  17  18
ATOM     18  C   UNL     1      15.240 -19.499  21.165  1.00  0.00     0.137 C 
ATOM     19  C   UNL     1      14.037 -18.553  21.310  1.00  0.00     0.040 C 
ATOM     20  C   UNL     1      15.009 -20.737  22.032  1.00  0.00     0.040 C 
ENDBRANCH  17  18
ENDBRANCH   1  17
BRANCH   1  21
ATOM     21  C   UNL     1      17.161 -21.007  18.925  1.00  0.00     0.200 C 
BRANCH  21  22
ATOM     22  C   UNL     1      16.299 -22.254  19.304  1.00  0.00     0.013 C 
ATOM     23  C   UNL     1      14.930 -22.286  18.606  1.00  0.00     0.010 C 
ATOM     24  C   UNL     1      17.012 -23.548  18.915  1.00  0.00     0.010 C 
ENDBRANCH  21  22
BRANCH  21  25
ATOM     25  C   UNL     1      18.464 -21.128  19.743  1.00  0.00     0.307 C 
ATOM     26  O   UNL     1      18.424 -21.125  20.930  1.00  0.00    -0.267 OA
BRANCH  25  27
ATOM     27  N   UNL     1      19.744 -21.263  19.083  1.00  0.00     0.010 NA
ATOM     28  O   UNL     1      19.768 -21.566  17.946  1.00  0.00    -0.142 OA
ENDBRANCH  25  27
ENDBRANCH  21  25
ENDBRANCH   1  21
TORSDOF 9
ENDMDL
MODEL 5
REMARK VINA RESULT:    -7.424      1.668      3.727
REMARK INTER + INTRA:         -11.955
REMARK INTER:                 -12.346
REMARK INTRA:                   0.391
REMARK UNBOUND:                -0.626
REMARK SMILES CC(C)ON([C@@H](C(=O)N=O)C(C)C)S(=O)(=O)c1ccc(-c2ccccc2)cc1
REMARK SMILES IDX 5 1 14 2 15 3 16 4 17 5 18 6 28 7 19 8 27 9 20 10 21 11
REMARK SMILES IDX 22 12 26 13 23 14 25 15 24 16 4 17 2 18 1 19 3 20 6 21 11 22
REMARK SMILES IDX 12 23 13 24 7 25 8 26 9 27 10 28
REMARK H PARENT
ROOT
ATOM      1  N   UNL     1      16.999 -18.108  19.163  1.00  0.00    -0.064 NA
ENDROOT
BRANCH   1   2
ATOM      2  S   UNL     1      17.366 -16.781  18.604  1.00  0.00     0.265 S 
ATOM      3  O   UNL     1      16.511 -16.479  17.458  1.00  0.00    -0.205 OA
ATOM      4  O   UNL     1      18.787 -16.684  18.244  1.00  0.00    -0.205 OA
BRANCH   2   5
ATOM      5  C   UNL     1      17.034 -15.619  19.994  1.00  0.00     0.084 A 
ATOM      6  C   UNL     1      16.366 -14.380  19.741  1.00  0.00     0.022 A 
ATOM      7  C   UNL     1      17.483 -15.959  21.316  1.00  0.00     0.022 A 
ATOM      8  C   UNL     1      16.136 -13.462  20.859  1.00  0.00     0.010 A 
ATOM      9  C   UNL     1      17.255 -15.039  22.431  1.00  0.00     0.010 A 
ATOM     10  C   UNL     1      16.576 -13.810  22.179  1.00  0.00    -0.018 A 
BRANCH  10  11
ATOM     11  C   UNL     1      16.316 -12.813  23.337  1.00  0.00    -0.018 A 
ATOM     12  C   UNL     1      15.716 -11.425  23.055  1.00  0.00     0.009 A 
ATOM     13  C   UNL     1      16.724 -13.144  24.590  1.00  0.00     0.009 A 
ATOM     14  C   UNL     1      15.518 -10.534  24.092  1.00  0.00     0.001 A 
ATOM     15  C   UNL     1      16.497 -12.135  25.764  1.00  0.00     0.001 A 
ATOM     16  C   UNL     1      15.939 -10.930  25.525  1.00  0.00     0.000 A 
ENDBRANCH  10  11
ENDBRANCH   2   5
ENDBRANCH   1   2
BRANCH   1  17
ATOM     17  O   UNL     1      17.907 -18.642  19.869  1.00  0.00    -0.281 OA
BRANCH  17  18
ATOM     18  C   UNL     1      18.453 -19.906  19.468  1.00  0.00     0.137 C 
ATOM     19  C   UNL     1      19.418 -19.735  18.283  1.00  0.00     0.040 C 
ATOM     20  C   UNL     1      19.195 -20.576  20.625  1.00  0.00     0.040 C 
ENDBRANCH  17  18
ENDBRANCH   1  17
BRANCH   1  21
ATOM     21  C   UNL     1      15.716 -18.232  19.659  1.00  0.00     0.200 C 
BRANCH  21  22
ATOM     22  C   UNL     1      15.624 -18.965  21.037  1.00  0.00     0.013 C 
ATOM     23  C   UNL     1      14.445 -18.494  21.903  1.00  0.00     0.010 C 
ATOM     24  C   UNL     1      15.444 -20.470  20.843  1.00  0.00     0.010 C 
ENDBRANCH  21  22
BRANCH  21  25
ATOM     25  C   UNL     1      14.981 -19.137  18.648  1.00  0.00     0.307 C 
ATOM     26  O   UNL     1      13.794 -19.179  18.640  1.00  0.00    -0.267 OA
BRANCH  25  27
ATOM     27  N   UNL     1      15.718 -19.931  17.691  1.00  0.00     0.010 NA
ATOM     28  O   UNL     1      16.047 -19.436  16.674  1.00  0.00    -0.142 OA
ENDBRANCH  25  27
ENDBRANCH  21  25
ENDBRANCH   1  21
TORSDOF 9
ENDMDL
MODEL 6
REMARK VINA RESULT:    -7.390      2.337      3.799
REMARK INTER + INTRA:         -11.904
REMARK INTER:                 -10.839
REMARK INTRA:                  -1.065
REMARK UNBOUND:                -0.626
REMARK SMILES CC(C)ON([C@@H](C(=O)N=O)C(C)C)S(=O)(=O)c1ccc(-c2ccccc2)cc1
REMARK SMILES IDX 5 1 14 2 15 3 16 4 17 5 18 6 28 7 19 8 27 9 20 10 21 11
REMARK SMILES IDX 22 12 26 13 23 14 25 15 24 16 4 17 2 18 1 19 3 20 6 21 11 22
REMARK SMILES IDX 12 23 13 24 7 25 8 26 9 27 10 28
REMARK H PARENT
ROOT
ATOM      1  N   UNL     1      20.335 -20.487  16.876  1.00  0.00    -0.064 NA
ENDROOT
BRANCH   1   2
ATOM      2  S   UNL     1      18.865 -20.682  16.978  1.00  0.00     0.265 S 
ATOM      3  O   UNL     1      18.585 -21.950  17.650  1.00  0.00    -0.205 OA
ATOM      4  O   UNL     1      18.185 -20.610  15.678  1.00  0.00    -0.205 OA
BRANCH   2   5
ATOM      5  C   UNL     1      18.311 -19.259  18.008  1.00  0.00     0.084 A 
ATOM      6  C   UNL     1      17.308 -18.369  17.509  1.00  0.00     0.022 A 
ATOM      7  C   UNL     1      18.920 -19.039  19.289  1.00  0.00     0.022 A 
ATOM      8  C   UNL     1      16.903 -17.230  18.336  1.00  0.00     0.010 A 
ATOM      9  C   UNL     1      18.517 -17.898  20.112  1.00  0.00     0.010 A 
ATOM     10  C   UNL     1      17.506 -17.020  19.620  1.00  0.00    -0.018 A 
BRANCH  10  11
ATOM     11  C   UNL     1      17.052 -15.803  20.465  1.00  0.00    -0.018 A 
ATOM     12  C   UNL     1      16.337 -14.613  19.804  1.00  0.00     0.009 A 
ATOM     13  C   UNL     1      17.389 -15.758  21.781  1.00  0.00     0.009 A 
ATOM     14  C   UNL     1      15.966 -13.521  20.563  1.00  0.00     0.001 A 
ATOM     15  C   UNL     1      16.966 -14.521  22.641  1.00  0.00     0.001 A 
ATOM     16  C   UNL     1      16.309 -13.491  22.070  1.00  0.00     0.000 A 
ENDBRANCH  10  11
ENDBRANCH   2   5
ENDBRANCH   1   2
BRANCH   1  17
ATOM     17  O   UNL     1      21.011 -21.548  17.038  1.00  0.00    -0.281 OA
BRANCH  17  18
ATOM     18  C   UNL     1      21.758 -21.723  18.250  1.00  0.00     0.137 C 
ATOM     19  C   UNL     1      21.409 -23.062  18.920  1.00  0.00     0.040 C 
ATOM     20  C   UNL     1      23.262 -21.675  17.979  1.00  0.00     0.040 C 
ENDBRANCH  17  18
ENDBRANCH   1  17
BRANCH   1  21
ATOM     21  C   UNL     1      20.775 -19.656  15.864  1.00  0.00     0.200 C 
BRANCH  21  22
ATOM     22  C   UNL     1      22.013 -20.195  15.078  1.00  0.00     0.013 C 
ATOM     23  C   UNL     1      21.665 -21.311  14.079  1.00  0.00     0.010 C 
ATOM     24  C   UNL     1      22.672 -19.080  14.267  1.00  0.00     0.010 C 
ENDBRANCH  21  22
BRANCH  21  25
ATOM     25  C   UNL     1      21.252 -18.373  16.578  1.00  0.00     0.307 C 
ATOM     26  O   UNL     1      22.166 -18.419  17.335  1.00  0.00    -0.267 OA
BRANCH  25  27
ATOM     27  N   UNL     1      20.610 -17.102  16.326  1.00  0.00     0.010 NA
ATOM     28  O   UNL     1      20.190 -16.487  17.238  1.00  0.00    -0.142 OA
ENDBRANCH  25  27
ENDBRANCH  21  25
ENDBRANCH   1  21
TORSDOF 9
ENDMDL
MODEL 7
REMARK VINA RESULT:    -7.285      1.891      3.437
REMARK INTER + INTRA:         -11.743
REMARK INTER:                 -10.857
REMARK INTRA:                  -0.886
REMARK UNBOUND:                -0.626
REMARK SMILES CC(C)ON([C@@H](C(=O)N=O)C(C)C)S(=O)(=O)c1ccc(-c2ccccc2)cc1
REMARK SMILES IDX 5 1 14 2 15 3 16 4 17 5 18 6 28 7 19 8 27 9 20 10 21 11
REMARK SMILES IDX 22 12 26 13 23 14 25 15 24 16 4 17 2 18 1 19 3 20 6 21 11 22
REMARK SMILES IDX 12 23 13 24 7 25 8 26 9 27 10 28
REMARK H PARENT
ROOT
ATOM      1  N   UNL     1      18.153 -20.098  17.796  1.00  0.00    -0.064 NA
ENDROOT
BRANCH   1   2
ATOM      2  S   UNL     1      16.749 -19.635  17.648  1.00  0.00     0.265 S 
ATOM      3  O   UNL     1      15.838 -20.673  18.126  1.00  0.00    -0.205 OA
ATOM      4  O   UNL     1      16.419 -19.232  16.275  1.00  0.00    -0.205 OA
BRANCH   2   5
ATOM      5  C   UNL     1      16.670 -18.145  18.729  1.00  0.00     0.084 A 
ATOM      6  C   UNL     1      16.485 -16.852  18.145  1.00  0.00     0.022 A 
ATOM      7  C   UNL     1      16.829 -18.297  20.148  1.00  0.00     0.022 A 
ATOM      8  C   UNL     1      16.450 -15.681  19.023  1.00  0.00     0.010 A 
ATOM      9  C   UNL     1      16.799 -17.125  21.024  1.00  0.00     0.010 A 
ATOM     10  C   UNL     1      16.600 -15.838  20.441  1.00  0.00    -0.018 A 
BRANCH  10  11
ATOM     11  C   UNL     1      16.560 -14.575  21.338  1.00  0.00    -0.018 A 
ATOM     12  C   UNL     1      15.989 -13.251  20.802  1.00  0.00     0.009 A 
ATOM     13  C   UNL     1      17.132 -14.628  22.570  1.00  0.00     0.009 A 
ATOM     14  C   UNL     1      15.988 -12.125  21.601  1.00  0.00     0.001 A 
ATOM     15  C   UNL     1      17.128 -13.352  23.475  1.00  0.00     0.001 A 
ATOM     16  C   UNL     1      16.597 -12.199  23.019  1.00  0.00     0.000 A 
ENDBRANCH  10  11
ENDBRANCH   2   5
ENDBRANCH   1   2
BRANCH   1  17
ATOM     17  O   UNL     1      18.990 -19.164  17.983  1.00  0.00    -0.281 OA
BRANCH  17  18
ATOM     18  C   UNL     1      19.780 -18.700  16.879  1.00  0.00     0.137 C 
ATOM     19  C   UNL     1      19.901 -17.167  16.898  1.00  0.00     0.040 C 
ATOM     20  C   UNL     1      21.180 -19.312  16.910  1.00  0.00     0.040 C 
ENDBRANCH  17  18
ENDBRANCH   1  17
BRANCH   1  21
ATOM     21  C   UNL     1      18.350 -21.229  18.564  1.00  0.00     0.200 C 
BRANCH  21  22
ATOM     22  C   UNL     1      19.580 -21.151  19.525  1.00  0.00     0.013 C 
ATOM     23  C   UNL     1      19.209 -21.314  21.008  1.00  0.00     0.010 C 
ATOM     24  C   UNL     1      20.589 -22.255  19.208  1.00  0.00     0.010 C 
ENDBRANCH  21  22
BRANCH  21  25
ATOM     25  C   UNL     1      18.672 -22.350  17.553  1.00  0.00     0.307 C 
ATOM     26  O   UNL     1      18.341 -23.468  17.778  1.00  0.00    -0.267 OA
BRANCH  25  27
ATOM     27  N   UNL     1      19.362 -22.057  16.317  1.00  0.00     0.010 NA
ATOM     28  O   UNL     1      19.984 -22.911  15.796  1.00  0.00    -0.142 OA
ENDBRANCH  25  27
ENDBRANCH  21  25
ENDBRANCH   1  21
TORSDOF 9
ENDMDL
MODEL 8
REMARK VINA RESULT:    -7.281      1.449      3.227
REMARK INTER + INTRA:         -11.737
REMARK INTER:                 -11.187
REMARK INTRA:                  -0.550
REMARK UNBOUND:                -0.626
REMARK SMILES CC(C)ON([C@@H](C(=O)N=O)C(C)C)S(=O)(=O)c1ccc(-c2ccccc2)cc1
REMARK SMILES IDX 5 1 14 2 15 3 16 4 17 5 18 6 28 7 19 8 27 9 20 10 21 11
REMARK SMILES IDX 22 12 26 13 23 14 25 15 24 16 4 17 2 18 1 19 3 20 6 21 11 22
REMARK SMILES IDX 12 23 13 24 7 25 8 26 9 27 10 28
REMARK H PARENT
ROOT
ATOM      1  N   UNL     1      17.367 -19.658  17.958  1.00  0.00    -0.064 NA
ENDROOT
BRANCH   1   2
ATOM      2  S   UNL     1      16.089 -18.928  17.748  1.00  0.00     0.265 S 
ATOM      3  O   UNL     1      14.967 -19.790  18.114  1.00  0.00    -0.205 OA
ATOM      4  O   UNL     1      15.940 -18.416  16.379  1.00  0.00    -0.205 OA
BRANCH   2   5
ATOM      5  C   UNL     1      16.217 -17.494  18.898  1.00  0.00     0.084 A 
ATOM      6  C   UNL     1      15.905 -17.664  20.283  1.00  0.00     0.022 A 
ATOM      7  C   UNL     1      16.598 -16.210  18.380  1.00  0.00     0.022 A 
ATOM      8  C   UNL     1      15.990 -16.503  21.172  1.00  0.00     0.010 A 
ATOM      9  C   UNL     1      16.678 -15.050  19.269  1.00  0.00     0.010 A 
ATOM     10  C   UNL     1      16.380 -15.224  20.653  1.00  0.00    -0.018 A 
BRANCH  10  11
ATOM     11  C   UNL     1      16.458 -14.019  21.624  1.00  0.00    -0.018 A 
ATOM     12  C   UNL     1      17.081 -14.177  23.021  1.00  0.00     0.009 A 
ATOM     13  C   UNL     1      15.871 -12.848  21.261  1.00  0.00     0.009 A 
ATOM     14  C   UNL     1      17.116 -13.103  23.888  1.00  0.00     0.001 A 
ATOM     15  C   UNL     1      15.912 -11.631  22.244  1.00  0.00     0.001 A 
ATOM     16  C   UNL     1      16.490 -11.757  23.457  1.00  0.00     0.000 A 
ENDBRANCH  10  11
ENDBRANCH   2   5
ENDBRANCH   1   2
BRANCH   1  17
ATOM     17  O   UNL     1      18.385 -19.068  17.485  1.00  0.00    -0.281 OA
BRANCH  17  18
ATOM     18  C   UNL     1      19.306 -19.806  16.671  1.00  0.00     0.137 C 
ATOM     19  C   UNL     1      18.706 -20.091  15.285  1.00  0.00     0.040 C 
ATOM     20  C   UNL     1      20.621 -19.045  16.501  1.00  0.00     0.040 C 
ENDBRANCH  17  18
ENDBRANCH   1  17
BRANCH   1  21
ATOM     21  C   UNL     1      17.545 -20.240  19.198  1.00  0.00     0.200 C 
BRANCH  21  22
ATOM     22  C   UNL     1      18.979 -20.062  19.794  1.00  0.00     0.013 C 
ATOM     23  C   UNL     1      19.189 -18.707  20.489  1.00  0.00     0.010 C 
ATOM     24  C   UNL     1      19.270 -21.135  20.843  1.00  0.00     0.010 C 
ENDBRANCH  21  22
BRANCH  21  25
ATOM     25  C   UNL     1      17.370 -21.755  18.960  1.00  0.00     0.307 C 
ATOM     26  O   UNL     1      18.066 -22.319  18.180  1.00  0.00    -0.267 OA
BRANCH  25  27
ATOM     27  N   UNL     1      16.375 -22.509  19.688  1.00  0.00     0.010 NA
ATOM     28  O   UNL     1      15.711 -21.954  20.486  1.00  0.00    -0.142 OA
ENDBRANCH  25  27
ENDBRANCH  21  25
ENDBRANCH   1  21
TORSDOF 9
ENDMDL
MODEL 9
REMARK VINA RESULT:    -7.207      2.441      8.108
REMARK INTER + INTRA:         -11.625
REMARK INTER:                 -11.357
REMARK INTRA:                  -0.268
REMARK UNBOUND:                -0.626
REMARK SMILES CC(C)ON([C@@H](C(=O)N=O)C(C)C)S(=O)(=O)c1ccc(-c2ccccc2)cc1
REMARK SMILES IDX 5 1 14 2 15 3 16 4 17 5 18 6 28 7 19 8 27 9 20 10 21 11
REMARK SMILES IDX 22 12 26 13 23 14 25 15 24 16 4 17 2 18 1 19 3 20 6 21 11 22
REMARK SMILES IDX 12 23 13 24 7 25 8 26 9 27 10 28
REMARK H PARENT
ROOT
ATOM      1  N   UNL     1      17.196 -18.262  19.617  1.00  0.00    -0.064 NA
ENDROOT
BRANCH   1   2
ATOM      2  S   UNL     1      18.594 -18.736  19.792  1.00  0.00     0.265 S 
ATOM      3  O   UNL     1      18.626 -19.806  20.787  1.00  0.00    -0.205 OA
ATOM      4  O   UNL     1      19.525 -17.656  20.145  1.00  0.00    -0.205 OA
BRANCH   2   5
ATOM      5  C   UNL     1      19.045 -19.376  18.125  1.00  0.00     0.084 A 
ATOM      6  C   UNL     1      19.706 -18.518  17.190  1.00  0.00     0.022 A 
ATOM      7  C   UNL     1      18.695 -20.723  17.771  1.00  0.00     0.022 A 
ATOM      8  C   UNL     1      20.032 -19.043  15.861  1.00  0.00     0.010 A 
ATOM      9  C   UNL     1      19.018 -21.243  16.442  1.00  0.00     0.010 A 
ATOM     10  C   UNL     1      19.690 -20.392  15.515  1.00  0.00    -0.018 A 
BRANCH  10  11
ATOM     11  C   UNL     1      20.050 -20.910  14.100  1.00  0.00    -0.018 A 
ATOM     12  C   UNL     1      19.037 -21.733  13.287  1.00  0.00     0.009 A 
ATOM     13  C   UNL     1      21.311 -20.715  13.633  1.00  0.00     0.009 A 
ATOM     14  C   UNL     1      19.382 -22.216  12.040  1.00  0.00     0.001 A 
ATOM     15  C   UNL     1      21.700 -21.261  12.218  1.00  0.00     0.001 A 
ATOM     16  C   UNL     1      20.802 -21.954  11.489  1.00  0.00     0.000 A 
ENDBRANCH  10  11
ENDBRANCH   2   5
ENDBRANCH   1   2
BRANCH   1  17
ATOM     17  O   UNL     1      16.396 -18.663  20.516  1.00  0.00    -0.281 OA
BRANCH  17  18
ATOM     18  C   UNL     1      15.375 -19.610  20.172  1.00  0.00     0.137 C 
ATOM     19  C   UNL     1      15.596 -20.944  20.904  1.00  0.00     0.040 C 
ATOM     20  C   UNL     1      13.987 -19.072  20.520  1.00  0.00     0.040 C 
ENDBRANCH  17  18
ENDBRANCH   1  17
BRANCH   1  21
ATOM     21  C   UNL     1      17.037 -16.945  19.232  1.00  0.00     0.200 C 
BRANCH  21  22
ATOM     22  C   UNL     1      16.146 -16.094  20.194  1.00  0.00     0.013 C 
ATOM     23  C   UNL     1      16.755 -15.915  21.594  1.00  0.00     0.010 C 
ATOM     24  C   UNL     1      15.931 -14.688  19.635  1.00  0.00     0.010 C 
ENDBRANCH  21  22
BRANCH  21  25
ATOM     25  C   UNL     1      16.274 -17.008  17.892  1.00  0.00     0.307 C 
ATOM     26  O   UNL     1      16.110 -16.020  17.254  1.00  0.00    -0.267 OA
BRANCH  25  27
ATOM     27  N   UNL     1      15.765 -18.263  17.387  1.00  0.00     0.010 NA
ATOM     28  O   UNL     1      16.186 -18.680  16.370  1.00  0.00    -0.142 OA
ENDBRANCH  25  27
ENDBRANCH  21  25
ENDBRANCH   1  21
TORSDOF 9
ENDMDL
