MODEL 1
REMARK VINA RESULT:    -5.741      0.000      0.000
REMARK INTER + INTRA:          -8.888
REMARK INTER:                  -8.090
REMARK INTRA:                  -0.798
REMARK UNBOUND:                -0.798
REMARK SMILES CO[C@H]1OC(OC(=O)c2cc(O)c(O)c(O)c2)[C@H](O)[C@@H](O)[C@@H]1O
REMARK SMILES IDX 7 1 8 2 6 3 5 4 3 5 22 6 4 7 20 8 18 9 2 10 1 11 23 12 21 14
REMARK SMILES IDX 19 16 9 18 17 19 10 20 15 21 11 22 13 23 16 24 12 26 14 28
REMARK H PARENT 23 13 21 15 19 17 16 25 12 27 14 29
ROOT
ATOM      1  C   UNL     1     -17.450 -17.441  18.760  1.00  0.00     0.340 C 
ATOM      2  O   UNL     1     -17.890 -17.865  19.816  1.00  0.00    -0.246 OA
ENDROOT
BRANCH   1   3
ATOM      3  O   UNL     1     -16.237 -17.706  18.222  1.00  0.00    -0.429 OA
BRANCH   3   4
ATOM      4  C   UNL     1     -15.885 -19.096  18.133  1.00  0.00     0.345 C 
ATOM      5  C   UNL     1     -16.055 -19.076  15.755  1.00  0.00     0.285 C 
ATOM      6  C   UNL     1     -14.535 -19.242  15.580  1.00  0.00     0.202 C 
ATOM      7  O   UNL     1     -16.495 -19.678  16.968  1.00  0.00    -0.308 OA
ATOM      8  C   UNL     1     -13.809 -18.653  16.784  1.00  0.00     0.183 C 
ATOM      9  C   UNL     1     -14.352 -19.262  18.077  1.00  0.00     0.215 C 
BRANCH   5  10
ATOM     10  O   UNL     1     -16.663 -19.716  14.622  1.00  0.00    -0.353 OA
ATOM     11  C   UNL     1     -16.426 -21.118  14.618  1.00  0.00     0.198 C 
ENDBRANCH   5  10
BRANCH   6  12
ATOM     12  O   UNL     1     -14.066 -18.589  14.390  1.00  0.00    -0.385 OA
ATOM     13  H   UNL     1     -13.822 -19.315  13.780  1.00  0.00     0.211 HD
ENDBRANCH   6  12
BRANCH   8  14
ATOM     14  O   UNL     1     -12.399 -18.924  16.694  1.00  0.00    -0.387 OA
ATOM     15  H   UNL     1     -11.999 -18.083  16.391  1.00  0.00     0.211 HD
ENDBRANCH   8  14
BRANCH   9  16
ATOM     16  O   UNL     1     -13.692 -18.650  19.191  1.00  0.00    -0.384 OA
ATOM     17  H   UNL     1     -12.811 -18.389  18.855  1.00  0.00     0.211 HD
ENDBRANCH   9  16
ENDBRANCH   3   4
ENDBRANCH   1   3
BRANCH   1  18
ATOM     18  C   UNL     1     -18.225 -16.535  17.871  1.00  0.00     0.067 A 
ATOM     19  C   UNL     1     -19.049 -17.125  16.894  1.00  0.00     0.066 A 
ATOM     20  C   UNL     1     -18.152 -15.137  17.977  1.00  0.00     0.066 A 
ATOM     21  C   UNL     1     -19.789 -16.316  16.039  1.00  0.00     0.162 A 
ATOM     22  C   UNL     1     -18.899 -14.349  17.112  1.00  0.00     0.162 A 
ATOM     23  C   UNL     1     -19.713 -14.932  16.149  1.00  0.00     0.200 A 
BRANCH  21  24
ATOM     24  O   UNL     1     -20.608 -16.833  15.075  1.00  0.00    -0.504 OA
ATOM     25  H   UNL     1     -20.337 -17.754  14.904  1.00  0.00     0.293 HD
ENDBRANCH  21  24
BRANCH  22  26
ATOM     26  O   UNL     1     -18.826 -12.991  17.214  1.00  0.00    -0.504 OA
ATOM     27  H   UNL     1     -19.751 -12.684  17.116  1.00  0.00     0.293 HD
ENDBRANCH  22  26
BRANCH  23  28
ATOM     28  O   UNL     1     -20.437 -14.126  15.313  1.00  0.00    -0.502 OA
ATOM     29  H   UNL     1     -20.961 -14.750  14.769  1.00  0.00     0.293 HD
ENDBRANCH  23  28
ENDBRANCH   1  18
TORSDOF 10
ENDMDL
MODEL 2
REMARK VINA RESULT:    -5.395      2.075      2.753
REMARK INTER + INTRA:          -8.401
REMARK INTER:                  -7.830
REMARK INTRA:                  -0.572
REMARK UNBOUND:                -0.798
REMARK SMILES CO[C@H]1OC(OC(=O)c2cc(O)c(O)c(O)c2)[C@H](O)[C@@H](O)[C@@H]1O
REMARK SMILES IDX 7 1 8 2 6 3 5 4 3 5 22 6 4 7 20 8 18 9 2 10 1 11 23 12 21 14
REMARK SMILES IDX 19 16 9 18 17 19 10 20 15 21 11 22 13 23 16 24 12 26 14 28
REMARK H PARENT 23 13 21 15 19 17 16 25 12 27 14 29
ROOT
ATOM      1  C   UNL     1     -17.761 -17.549  19.067  1.00  0.00     0.340 C 
ATOM      2  O   UNL     1     -17.073 -17.161  19.997  1.00  0.00    -0.246 OA
ENDROOT
BRANCH   1   3
ATOM      3  O   UNL     1     -18.068 -18.832  18.765  1.00  0.00    -0.429 OA
BRANCH   3   4
ATOM      4  C   UNL     1     -17.091 -19.813  19.146  1.00  0.00     0.345 C 
ATOM      5  C   UNL     1     -18.351 -21.579  18.157  1.00  0.00     0.285 C 
ATOM      6  C   UNL     1     -17.317 -21.778  17.036  1.00  0.00     0.202 C 
ATOM      7  O   UNL     1     -17.730 -21.086  19.340  1.00  0.00    -0.308 OA
ATOM      8  C   UNL     1     -16.584 -20.468  16.771  1.00  0.00     0.183 C 
ATOM      9  C   UNL     1     -15.990 -19.923  18.069  1.00  0.00     0.215 C 
BRANCH   5  10
ATOM     10  O   UNL     1     -18.942 -22.867  18.394  1.00  0.00    -0.353 OA
ATOM     11  C   UNL     1     -18.084 -23.710  19.153  1.00  0.00     0.198 C 
ENDBRANCH   5  10
BRANCH   6  12
ATOM     12  O   UNL     1     -17.936 -22.219  15.817  1.00  0.00    -0.385 OA
ATOM     13  H   UNL     1     -18.810 -21.778  15.800  1.00  0.00     0.211 HD
ENDBRANCH   6  12
BRANCH   8  14
ATOM     14  O   UNL     1     -15.523 -20.677  15.821  1.00  0.00    -0.387 OA
ATOM     15  H   UNL     1     -15.898 -20.402  14.959  1.00  0.00     0.211 HD
ENDBRANCH   8  14
BRANCH   9  16
ATOM     16  O   UNL     1     -15.357 -18.667  17.800  1.00  0.00    -0.384 OA
ATOM     17  H   UNL     1     -14.644 -18.592  18.466  1.00  0.00     0.211 HD
ENDBRANCH   9  16
ENDBRANCH   3   4
ENDBRANCH   1   3
BRANCH   1  18
ATOM     18  C   UNL     1     -18.395 -16.622  18.092  1.00  0.00     0.067 A 
ATOM     19  C   UNL     1     -19.152 -17.186  17.048  1.00  0.00     0.066 A 
ATOM     20  C   UNL     1     -18.256 -15.228  18.185  1.00  0.00     0.066 A 
ATOM     21  C   UNL     1     -19.760 -16.356  16.114  1.00  0.00     0.162 A 
ATOM     22  C   UNL     1     -18.871 -14.419  17.239  1.00  0.00     0.162 A 
ATOM     23  C   UNL     1     -19.619 -14.976  16.210  1.00  0.00     0.200 A 
BRANCH  21  24
ATOM     24  O   UNL     1     -20.508 -16.848  15.082  1.00  0.00    -0.504 OA
ATOM     25  H   UNL     1     -20.989 -17.635  15.398  1.00  0.00     0.293 HD
ENDBRANCH  21  24
BRANCH  22  26
ATOM     26  O   UNL     1     -18.734 -13.064  17.327  1.00  0.00    -0.504 OA
ATOM     27  H   UNL     1     -19.146 -12.828  18.184  1.00  0.00     0.293 HD
ENDBRANCH  22  26
BRANCH  23  28
ATOM     28  O   UNL     1     -20.213 -14.150  15.295  1.00  0.00    -0.502 OA
ATOM     29  H   UNL     1     -20.953 -13.737  15.786  1.00  0.00     0.293 HD
ENDBRANCH  23  28
ENDBRANCH   1  18
TORSDOF 10
ENDMDL
MODEL 3
REMARK VINA RESULT:    -5.364      2.408      4.018
REMARK INTER + INTRA:          -8.357
REMARK INTER:                  -7.557
REMARK INTRA:                  -0.800
REMARK UNBOUND:                -0.798
REMARK SMILES CO[C@H]1OC(OC(=O)c2cc(O)c(O)c(O)c2)[C@H](O)[C@@H](O)[C@@H]1O
REMARK SMILES IDX 7 1 8 2 6 3 5 4 3 5 22 6 4 7 20 8 18 9 2 10 1 11 23 12 21 14
REMARK SMILES IDX 19 16 9 18 17 19 10 20 15 21 11 22 13 23 16 24 12 26 14 28
REMARK H PARENT 23 13 21 15 19 17 16 25 12 27 14 29
ROOT
ATOM      1  C   UNL     1     -15.990 -18.985  20.476  1.00  0.00     0.340 C 
ATOM      2  O   UNL     1     -16.492 -19.905  21.102  1.00  0.00    -0.246 OA
ENDROOT
BRANCH   1   3
ATOM      3  O   UNL     1     -14.769 -18.437  20.679  1.00  0.00    -0.429 OA
BRANCH   3   4
ATOM      4  C   UNL     1     -13.696 -19.368  20.893  1.00  0.00     0.345 C 
ATOM      5  C   UNL     1     -12.820 -18.991  18.708  1.00  0.00     0.285 C 
ATOM      6  C   UNL     1     -11.577 -18.270  19.260  1.00  0.00     0.202 C 
ATOM      7  O   UNL     1     -13.304 -19.952  19.639  1.00  0.00    -0.308 OA
ATOM      8  C   UNL     1     -11.907 -17.624  20.601  1.00  0.00     0.183 C 
ATOM      9  C   UNL     1     -12.494 -18.663  21.556  1.00  0.00     0.215 C 
BRANCH   5  10
ATOM     10  O   UNL     1     -12.407 -19.628  17.489  1.00  0.00    -0.353 OA
ATOM     11  C   UNL     1     -13.263 -19.293  16.403  1.00  0.00     0.198 C 
ENDBRANCH   5  10
BRANCH   6  12
ATOM     12  O   UNL     1     -11.110 -17.255  18.357  1.00  0.00    -0.385 OA
ATOM     13  H   UNL     1     -11.351 -17.576  17.465  1.00  0.00     0.211 HD
ENDBRANCH   6  12
BRANCH   8  14
ATOM     14  O   UNL     1     -10.719 -17.065  21.188  1.00  0.00    -0.387 OA
ATOM     15  H   UNL     1     -10.020 -17.193  20.514  1.00  0.00     0.211 HD
ENDBRANCH   8  14
BRANCH   9  16
ATOM     16  O   UNL     1     -12.846 -18.017  22.785  1.00  0.00    -0.384 OA
ATOM     17  H   UNL     1     -12.172 -17.319  22.910  1.00  0.00     0.211 HD
ENDBRANCH   9  16
ENDBRANCH   3   4
ENDBRANCH   1   3
BRANCH   1  18
ATOM     18  C   UNL     1     -16.679 -18.310  19.344  1.00  0.00     0.067 A 
ATOM     19  C   UNL     1     -17.522 -17.225  19.644  1.00  0.00     0.066 A 
ATOM     20  C   UNL     1     -16.515 -18.725  18.013  1.00  0.00     0.066 A 
ATOM     21  C   UNL     1     -18.188 -16.566  18.616  1.00  0.00     0.162 A 
ATOM     22  C   UNL     1     -17.191 -18.053  17.003  1.00  0.00     0.162 A 
ATOM     23  C   UNL     1     -18.022 -16.981  17.300  1.00  0.00     0.200 A 
BRANCH  21  24
ATOM     24  O   UNL     1     -19.016 -15.505  18.849  1.00  0.00    -0.504 OA
ATOM     25  H   UNL     1     -19.920 -15.844  18.987  1.00  0.00     0.293 HD
ENDBRANCH  21  24
BRANCH  22  26
ATOM     26  O   UNL     1     -17.033 -18.458  15.709  1.00  0.00    -0.504 OA
ATOM     27  H   UNL     1     -17.762 -19.095  15.558  1.00  0.00     0.293 HD
ENDBRANCH  22  26
BRANCH  23  28
ATOM     28  O   UNL     1     -18.672 -16.341  16.280  1.00  0.00    -0.502 OA
ATOM     29  H   UNL     1     -18.828 -15.436  16.622  1.00  0.00     0.293 HD
ENDBRANCH  23  28
ENDBRANCH   1  18
TORSDOF 10
ENDMDL
MODEL 4
REMARK VINA RESULT:    -5.358      2.425      3.797
REMARK INTER + INTRA:          -8.348
REMARK INTER:                  -7.542
REMARK INTRA:                  -0.806
REMARK UNBOUND:                -0.798
REMARK SMILES CO[C@H]1OC(OC(=O)c2cc(O)c(O)c(O)c2)[C@H](O)[C@@H](O)[C@@H]1O
REMARK SMILES IDX 7 1 8 2 6 3 5 4 3 5 22 6 4 7 20 8 18 9 2 10 1 11 23 12 21 14
REMARK SMILES IDX 19 16 9 18 17 19 10 20 15 21 11 22 13 23 16 24 12 26 14 28
REMARK H PARENT 23 13 21 15 19 17 16 25 12 27 14 29
ROOT
ATOM      1  C   UNL     1     -15.955 -18.977  20.459  1.00  0.00     0.340 C 
ATOM      2  O   UNL     1     -16.430 -19.938  21.043  1.00  0.00    -0.246 OA
ENDROOT
BRANCH   1   3
ATOM      3  O   UNL     1     -14.740 -18.419  20.670  1.00  0.00    -0.429 OA
BRANCH   3   4
ATOM      4  C   UNL     1     -13.659 -19.341  20.884  1.00  0.00     0.345 C 
ATOM      5  C   UNL     1     -12.773 -18.940  18.707  1.00  0.00     0.285 C 
ATOM      6  C   UNL     1     -11.541 -18.211  19.272  1.00  0.00     0.202 C 
ATOM      7  O   UNL     1     -13.254 -19.913  19.629  1.00  0.00    -0.308 OA
ATOM      8  C   UNL     1     -11.886 -17.578  20.615  1.00  0.00     0.183 C 
ATOM      9  C   UNL     1     -12.469 -18.628  21.560  1.00  0.00     0.215 C 
BRANCH   5  10
ATOM     10  O   UNL     1     -12.347 -19.566  17.486  1.00  0.00    -0.353 OA
ATOM     11  C   UNL     1     -13.186 -19.214  16.393  1.00  0.00     0.198 C 
ENDBRANCH   5  10
BRANCH   6  12
ATOM     12  O   UNL     1     -11.079 -17.185  18.379  1.00  0.00    -0.385 OA
ATOM     13  H   UNL     1     -10.178 -16.963  18.690  1.00  0.00     0.211 HD
ENDBRANCH   6  12
BRANCH   8  14
ATOM     14  O   UNL     1     -10.707 -17.011  21.213  1.00  0.00    -0.387 OA
ATOM     15  H   UNL     1     -11.020 -16.590  22.040  1.00  0.00     0.211 HD
ENDBRANCH   8  14
BRANCH   9  16
ATOM     16  O   UNL     1     -12.835 -17.994  22.791  1.00  0.00    -0.384 OA
ATOM     17  H   UNL     1     -13.004 -18.728  23.416  1.00  0.00     0.211 HD
ENDBRANCH   9  16
ENDBRANCH   3   4
ENDBRANCH   1   3
BRANCH   1  18
ATOM     18  C   UNL     1     -16.676 -18.256  19.377  1.00  0.00     0.067 A 
ATOM     19  C   UNL     1     -16.473 -18.688  18.053  1.00  0.00     0.066 A 
ATOM     20  C   UNL     1     -17.532 -17.174  19.639  1.00  0.00     0.066 A 
ATOM     21  C   UNL     1     -17.126 -18.040  17.010  1.00  0.00     0.162 A 
ATOM     22  C   UNL     1     -18.172 -16.541  18.581  1.00  0.00     0.162 A 
ATOM     23  C   UNL     1     -17.972 -16.970  17.275  1.00  0.00     0.200 A 
BRANCH  21  24
ATOM     24  O   UNL     1     -16.968 -18.419  15.707  1.00  0.00    -0.504 OA
ATOM     25  H   UNL     1     -16.738 -19.367  15.688  1.00  0.00     0.293 HD
ENDBRANCH  21  24
BRANCH  22  26
ATOM     26  O   UNL     1     -19.002 -15.489  18.836  1.00  0.00    -0.504 OA
ATOM     27  H   UNL     1     -18.644 -14.754  18.295  1.00  0.00     0.293 HD
ENDBRANCH  22  26
BRANCH  23  28
ATOM     28  O   UNL     1     -18.619 -16.324  16.257  1.00  0.00    -0.502 OA
ATOM     29  H   UNL     1     -19.132 -15.620  16.704  1.00  0.00     0.293 HD
ENDBRANCH  23  28
ENDBRANCH   1  18
TORSDOF 10
ENDMDL
MODEL 5
REMARK VINA RESULT:    -4.983      2.926      4.851
REMARK INTER + INTRA:          -7.820
REMARK INTER:                  -7.034
REMARK INTRA:                  -0.786
REMARK UNBOUND:                -0.798
REMARK SMILES CO[C@H]1OC(OC(=O)c2cc(O)c(O)c(O)c2)[C@H](O)[C@@H](O)[C@@H]1O
REMARK SMILES IDX 7 1 8 2 6 3 5 4 3 5 22 6 4 7 20 8 18 9 2 10 1 11 23 12 21 14
REMARK SMILES IDX 19 16 9 18 17 19 10 20 15 21 11 22 13 23 16 24 12 26 14 28
REMARK H PARENT 23 13 21 15 19 17 16 25 12 27 14 29
ROOT
ATOM      1  C   UNL     1     -15.901 -18.982  20.394  1.00  0.00     0.340 C 
ATOM      2  O   UNL     1     -16.406 -19.869  21.064  1.00  0.00    -0.246 OA
ENDROOT
BRANCH   1   3
ATOM      3  O   UNL     1     -14.640 -18.503  20.500  1.00  0.00    -0.429 OA
BRANCH   3   4
ATOM      4  C   UNL     1     -13.603 -19.493  20.593  1.00  0.00     0.345 C 
ATOM      5  C   UNL     1     -11.987 -18.013  19.654  1.00  0.00     0.285 C 
ATOM      6  C   UNL     1     -11.232 -17.886  20.989  1.00  0.00     0.202 C 
ATOM      7  O   UNL     1     -12.633 -19.278  19.555  1.00  0.00    -0.308 OA
ATOM      8  C   UNL     1     -12.194 -18.108  22.150  1.00  0.00     0.183 C 
ATOM      9  C   UNL     1     -12.928 -19.438  21.980  1.00  0.00     0.215 C 
BRANCH   5  10
ATOM     10  O   UNL     1     -11.003 -17.863  18.619  1.00  0.00    -0.353 OA
ATOM     11  C   UNL     1     -10.205 -19.032  18.476  1.00  0.00     0.198 C 
ENDBRANCH   5  10
BRANCH   6  12
ATOM     12  O   UNL     1     -10.624 -16.592  21.131  1.00  0.00    -0.385 OA
ATOM     13  H   UNL     1     -11.360 -15.986  21.351  1.00  0.00     0.211 HD
ENDBRANCH   6  12
BRANCH   8  14
ATOM     14  O   UNL     1     -11.474 -18.125  23.395  1.00  0.00    -0.387 OA
ATOM     15  H   UNL     1     -10.895 -17.336  23.363  1.00  0.00     0.211 HD
ENDBRANCH   8  14
BRANCH   9  16
ATOM     16  O   UNL     1     -13.864 -19.593  23.053  1.00  0.00    -0.384 OA
ATOM     17  H   UNL     1     -14.376 -18.760  23.068  1.00  0.00     0.211 HD
ENDBRANCH   9  16
ENDBRANCH   3   4
ENDBRANCH   1   3
BRANCH   1  18
ATOM     18  C   UNL     1     -16.635 -18.274  19.311  1.00  0.00     0.067 A 
ATOM     19  C   UNL     1     -17.476 -17.207  19.680  1.00  0.00     0.066 A 
ATOM     20  C   UNL     1     -16.514 -18.640  17.961  1.00  0.00     0.066 A 
ATOM     21  C   UNL     1     -18.183 -16.519  18.699  1.00  0.00     0.162 A 
ATOM     22  C   UNL     1     -17.231 -17.939  17.000  1.00  0.00     0.162 A 
ATOM     23  C   UNL     1     -18.059 -16.885  17.364  1.00  0.00     0.200 A 
BRANCH  21  24
ATOM     24  O   UNL     1     -19.011 -15.474  18.999  1.00  0.00    -0.504 OA
ATOM     25  H   UNL     1     -18.520 -14.842  19.555  1.00  0.00     0.293 HD
ENDBRANCH  21  24
BRANCH  22  26
ATOM     26  O   UNL     1     -17.116 -18.296  15.689  1.00  0.00    -0.504 OA
ATOM     27  H   UNL     1     -17.774 -17.741  15.221  1.00  0.00     0.293 HD
ENDBRANCH  22  26
BRANCH  23  28
ATOM     28  O   UNL     1     -18.751 -16.216  16.391  1.00  0.00    -0.502 OA
ATOM     29  H   UNL     1     -18.194 -15.434  16.193  1.00  0.00     0.293 HD
ENDBRANCH  23  28
ENDBRANCH   1  18
TORSDOF 10
ENDMDL
MODEL 6
REMARK VINA RESULT:    -4.807      3.068      5.027
REMARK INTER + INTRA:          -7.572
REMARK INTER:                  -6.895
REMARK INTRA:                  -0.678
REMARK UNBOUND:                -0.798
REMARK SMILES CO[C@H]1OC(OC(=O)c2cc(O)c(O)c(O)c2)[C@H](O)[C@@H](O)[C@@H]1O
REMARK SMILES IDX 7 1 8 2 6 3 5 4 3 5 22 6 4 7 20 8 18 9 2 10 1 11 23 12 21 14
REMARK SMILES IDX 19 16 9 18 17 19 10 20 15 21 11 22 13 23 16 24 12 26 14 28
REMARK H PARENT 23 13 21 15 19 17 16 25 12 27 14 29
ROOT
ATOM      1  C   UNL     1     -16.091 -19.210  20.491  1.00  0.00     0.340 C 
ATOM      2  O   UNL     1     -16.593 -20.210  20.977  1.00  0.00    -0.246 OA
ENDROOT
BRANCH   1   3
ATOM      3  O   UNL     1     -14.894 -18.665  20.811  1.00  0.00    -0.429 OA
BRANCH   3   4
ATOM      4  C   UNL     1     -13.739 -19.384  20.351  1.00  0.00     0.345 C 
ATOM      5  C   UNL     1     -12.288 -17.571  20.891  1.00  0.00     0.285 C 
ATOM      6  C   UNL     1     -11.637 -18.351  22.047  1.00  0.00     0.202 C 
ATOM      7  O   UNL     1     -12.747 -18.458  19.876  1.00  0.00    -0.308 OA
ATOM      8  C   UNL     1     -12.626 -19.366  22.607  1.00  0.00     0.183 C 
ATOM      9  C   UNL     1     -13.160 -20.257  21.485  1.00  0.00     0.215 C 
BRANCH   5  10
ATOM     10  O   UNL     1     -11.275 -16.693  20.376  1.00  0.00    -0.353 OA
ATOM     11  C   UNL     1     -10.759 -17.154  19.133  1.00  0.00     0.198 C 
ENDBRANCH   5  10
BRANCH   6  12
ATOM     12  O   UNL     1     -11.221 -17.474  23.107  1.00  0.00    -0.385 OA
ATOM     13  H   UNL     1     -10.287 -17.710  23.281  1.00  0.00     0.211 HD
ENDBRANCH   6  12
BRANCH   8  14
ATOM     14  O   UNL     1     -11.984 -20.191  23.595  1.00  0.00    -0.387 OA
ATOM     15  H   UNL     1     -12.485 -20.032  24.421  1.00  0.00     0.211 HD
ENDBRANCH   8  14
BRANCH   9  16
ATOM     16  O   UNL     1     -14.126 -21.162  22.030  1.00  0.00    -0.384 OA
ATOM     17  H   UNL     1     -14.854 -21.183  21.376  1.00  0.00     0.211 HD
ENDBRANCH   9  16
ENDBRANCH   3   4
ENDBRANCH   1   3
BRANCH   1  18
ATOM     18  C   UNL     1     -16.752 -18.415  19.421  1.00  0.00     0.067 A 
ATOM     19  C   UNL     1     -16.558 -18.823  18.088  1.00  0.00     0.066 A 
ATOM     20  C   UNL     1     -17.543 -17.291  19.704  1.00  0.00     0.066 A 
ATOM     21  C   UNL     1     -17.156 -18.108  17.057  1.00  0.00     0.162 A 
ATOM     22  C   UNL     1     -18.129 -16.591  18.657  1.00  0.00     0.162 A 
ATOM     23  C   UNL     1     -17.939 -16.995  17.342  1.00  0.00     0.200 A 
BRANCH  21  24
ATOM     24  O   UNL     1     -17.005 -18.459  15.745  1.00  0.00    -0.504 OA
ATOM     25  H   UNL     1     -16.121 -18.857  15.633  1.00  0.00     0.293 HD
ENDBRANCH  21  24
BRANCH  22  26
ATOM     26  O   UNL     1     -18.896 -15.497  18.932  1.00  0.00    -0.504 OA
ATOM     27  H   UNL     1     -19.159 -15.151  18.054  1.00  0.00     0.293 HD
ENDBRANCH  22  26
BRANCH  23  28
ATOM     28  O   UNL     1     -18.531 -16.283  16.335  1.00  0.00    -0.502 OA
ATOM     29  H   UNL     1     -17.865 -16.279  15.617  1.00  0.00     0.293 HD
ENDBRANCH  23  28
ENDBRANCH   1  18
TORSDOF 10
ENDMDL
MODEL 7
REMARK VINA RESULT:    -4.707      3.123      5.278
REMARK INTER + INTRA:          -7.430
REMARK INTER:                  -6.768
REMARK INTRA:                  -0.662
REMARK UNBOUND:                -0.798
REMARK SMILES CO[C@H]1OC(OC(=O)c2cc(O)c(O)c(O)c2)[C@H](O)[C@@H](O)[C@@H]1O
REMARK SMILES IDX 7 1 8 2 6 3 5 4 3 5 22 6 4 7 20 8 18 9 2 10 1 11 23 12 21 14
REMARK SMILES IDX 19 16 9 18 17 19 10 20 15 21 11 22 13 23 16 24 12 26 14 28
REMARK H PARENT 23 13 21 15 19 17 16 25 12 27 14 29
ROOT
ATOM      1  C   UNL     1     -16.131 -19.590  20.332  1.00  0.00     0.340 C 
ATOM      2  O   UNL     1     -16.800 -20.119  21.205  1.00  0.00    -0.246 OA
ENDROOT
BRANCH   1   3
ATOM      3  O   UNL     1     -14.794 -19.699  20.156  1.00  0.00    -0.429 OA
BRANCH   3   4
ATOM      4  C   UNL     1     -14.014 -18.573  20.590  1.00  0.00     0.345 C 
ATOM      5  C   UNL     1     -13.271 -19.729  22.538  1.00  0.00     0.285 C 
ATOM      6  C   UNL     1     -11.830 -19.829  22.008  1.00  0.00     0.202 C 
ATOM      7  O   UNL     1     -13.921 -18.571  22.024  1.00  0.00    -0.308 OA
ATOM      8  C   UNL     1     -11.838 -19.830  20.484  1.00  0.00     0.183 C 
ATOM      9  C   UNL     1     -12.606 -18.617  19.959  1.00  0.00     0.215 C 
BRANCH   5  10
ATOM     10  O   UNL     1     -13.170 -19.661  23.969  1.00  0.00    -0.353 OA
ATOM     11  C   UNL     1     -14.007 -20.620  24.603  1.00  0.00     0.198 C 
ENDBRANCH   5  10
BRANCH   6  12
ATOM     12  O   UNL     1     -11.178 -21.023  22.470  1.00  0.00    -0.385 OA
ATOM     13  H   UNL     1     -10.364 -20.713  22.917  1.00  0.00     0.211 HD
ENDBRANCH   6  12
BRANCH   8  14
ATOM     14  O   UNL     1     -10.491 -19.786  19.980  1.00  0.00    -0.387 OA
ATOM     15  H   UNL     1     -10.079 -19.019  20.428  1.00  0.00     0.211 HD
ENDBRANCH   8  14
BRANCH   9  16
ATOM     16  O   UNL     1     -12.646 -18.675  18.529  1.00  0.00    -0.384 OA
ATOM     17  H   UNL     1     -11.883 -19.232  18.274  1.00  0.00     0.211 HD
ENDBRANCH   9  16
ENDBRANCH   3   4
ENDBRANCH   1   3
BRANCH   1  18
ATOM     18  C   UNL     1     -16.722 -18.717  19.283  1.00  0.00     0.067 A 
ATOM     19  C   UNL     1     -17.463 -17.597  19.705  1.00  0.00     0.066 A 
ATOM     20  C   UNL     1     -16.566 -18.980  17.913  1.00  0.00     0.066 A 
ATOM     21  C   UNL     1     -18.034 -16.755  18.758  1.00  0.00     0.162 A 
ATOM     22  C   UNL     1     -17.147 -18.126  16.985  1.00  0.00     0.162 A 
ATOM     23  C   UNL     1     -17.876 -17.020  17.402  1.00  0.00     0.200 A 
BRANCH  21  24
ATOM     24  O   UNL     1     -18.761 -15.652  19.110  1.00  0.00    -0.504 OA
ATOM     25  H   UNL     1     -18.168 -15.026  19.565  1.00  0.00     0.293 HD
ENDBRANCH  21  24
BRANCH  22  26
ATOM     26  O   UNL     1     -16.997 -18.383  15.654  1.00  0.00    -0.504 OA
ATOM     27  H   UNL     1     -17.910 -18.506  15.320  1.00  0.00     0.293 HD
ENDBRANCH  22  26
BRANCH  23  28
ATOM     28  O   UNL     1     -18.436 -16.198  16.462  1.00  0.00    -0.502 OA
ATOM     29  H   UNL     1     -19.391 -16.195  16.680  1.00  0.00     0.293 HD
ENDBRANCH  23  28
ENDBRANCH   1  18
TORSDOF 10
ENDMDL
MODEL 8
REMARK VINA RESULT:    -4.643      3.203      6.800
REMARK INTER + INTRA:          -7.341
REMARK INTER:                  -6.565
REMARK INTRA:                  -0.776
REMARK UNBOUND:                -0.798
REMARK SMILES CO[C@H]1OC(OC(=O)c2cc(O)c(O)c(O)c2)[C@H](O)[C@@H](O)[C@@H]1O
REMARK SMILES IDX 7 1 8 2 6 3 5 4 3 5 22 6 4 7 20 8 18 9 2 10 1 11 23 12 21 14
REMARK SMILES IDX 19 16 9 18 17 19 10 20 15 21 11 22 13 23 16 24 12 26 14 28
REMARK H PARENT 23 13 21 15 19 17 16 25 12 27 14 29
ROOT
ATOM      1  C   UNL     1     -14.721 -19.287  21.135  1.00  0.00     0.340 C 
ATOM      2  O   UNL     1     -15.133 -20.028  22.012  1.00  0.00    -0.246 OA
ENDROOT
BRANCH   1   3
ATOM      3  O   UNL     1     -15.365 -18.944  19.994  1.00  0.00    -0.429 OA
BRANCH   3   4
ATOM      4  C   UNL     1     -16.792 -18.823  20.097  1.00  0.00     0.345 C 
ATOM      5  C   UNL     1     -16.908 -17.496  18.119  1.00  0.00     0.285 C 
ATOM      6  C   UNL     1     -17.606 -18.617  17.330  1.00  0.00     0.202 C 
ATOM      7  O   UNL     1     -17.218 -17.584  19.506  1.00  0.00    -0.308 OA
ATOM      8  C   UNL     1     -17.211 -19.974  17.900  1.00  0.00     0.183 C 
ATOM      9  C   UNL     1     -17.486 -20.015  19.403  1.00  0.00     0.215 C 
BRANCH   5  10
ATOM     10  O   UNL     1     -17.385 -16.258  17.570  1.00  0.00    -0.353 OA
ATOM     11  C   UNL     1     -18.640 -15.883  18.126  1.00  0.00     0.198 C 
ENDBRANCH   5  10
BRANCH   6  12
ATOM     12  O   UNL     1     -17.256 -18.578  15.937  1.00  0.00    -0.385 OA
ATOM     13  H   UNL     1     -18.067 -18.854  15.462  1.00  0.00     0.211 HD
ENDBRANCH   6  12
BRANCH   8  14
ATOM     14  O   UNL     1     -17.963 -21.019  17.257  1.00  0.00    -0.387 OA
ATOM     15  H   UNL     1     -18.196 -21.641  17.976  1.00  0.00     0.211 HD
ENDBRANCH   8  14
BRANCH   9  16
ATOM     16  O   UNL     1     -17.054 -21.279  19.920  1.00  0.00    -0.384 OA
ATOM     17  H   UNL     1     -16.535 -21.064  20.720  1.00  0.00     0.211 HD
ENDBRANCH   9  16
ENDBRANCH   3   4
ENDBRANCH   1   3
BRANCH   1  18
ATOM     18  C   UNL     1     -13.395 -18.618  21.202  1.00  0.00     0.067 A 
ATOM     19  C   UNL     1     -12.780 -18.260  19.988  1.00  0.00     0.066 A 
ATOM     20  C   UNL     1     -12.754 -18.347  22.421  1.00  0.00     0.066 A 
ATOM     21  C   UNL     1     -11.538 -17.635  20.005  1.00  0.00     0.162 A 
ATOM     22  C   UNL     1     -11.513 -17.723  22.413  1.00  0.00     0.162 A 
ATOM     23  C   UNL     1     -10.908 -17.368  21.215  1.00  0.00     0.200 A 
BRANCH  21  24
ATOM     24  O   UNL     1     -10.896 -17.262  18.857  1.00  0.00    -0.504 OA
ATOM     25  H   UNL     1     -10.413 -18.035  18.510  1.00  0.00     0.293 HD
ENDBRANCH  21  24
BRANCH  22  26
ATOM     26  O   UNL     1     -10.889 -17.462  23.598  1.00  0.00    -0.504 OA
ATOM     27  H   UNL     1     -10.481 -18.313  23.857  1.00  0.00     0.293 HD
ENDBRANCH  22  26
BRANCH  23  28
ATOM     28  O   UNL     1      -9.685 -16.754  21.243  1.00  0.00    -0.502 OA
ATOM     29  H   UNL     1      -9.840 -15.929  21.749  1.00  0.00     0.293 HD
ENDBRANCH  23  28
ENDBRANCH   1  18
TORSDOF 10
ENDMDL
MODEL 9
REMARK VINA RESULT:    -4.584      2.166      4.451
REMARK INTER + INTRA:          -7.258
REMARK INTER:                  -6.439
REMARK INTRA:                  -0.819
REMARK UNBOUND:                -0.798
REMARK SMILES CO[C@H]1OC(OC(=O)c2cc(O)c(O)c(O)c2)[C@H](O)[C@@H](O)[C@@H]1O
REMARK SMILES IDX 7 1 8 2 6 3 5 4 3 5 22 6 4 7 20 8 18 9 2 10 1 11 23 12 21 14
REMARK SMILES IDX 19 16 9 18 17 19 10 20 15 21 11 22 13 23 16 24 12 26 14 28
REMARK H PARENT 23 13 21 15 19 17 16 25 12 27 14 29
ROOT
ATOM      1  C   UNL     1     -14.408 -18.564  16.209  1.00  0.00     0.340 C 
ATOM      2  O   UNL     1     -13.281 -18.296  16.592  1.00  0.00    -0.246 OA
ENDROOT
BRANCH   1   3
ATOM      3  O   UNL     1     -14.753 -19.101  15.015  1.00  0.00    -0.429 OA
BRANCH   3   4
ATOM      4  C   UNL     1     -14.338 -20.459  14.800  1.00  0.00     0.345 C 
ATOM      5  C   UNL     1     -16.530 -21.289  15.240  1.00  0.00     0.285 C 
ATOM      6  C   UNL     1     -16.742 -21.695  13.771  1.00  0.00     0.202 C 
ATOM      7  O   UNL     1     -15.150 -21.346  15.588  1.00  0.00    -0.308 OA
ATOM      8  C   UNL     1     -15.905 -20.803  12.862  1.00  0.00     0.183 C 
ATOM      9  C   UNL     1     -14.442 -20.824  13.303  1.00  0.00     0.215 C 
BRANCH   5  10
ATOM     10  O   UNL     1     -17.291 -22.217  16.029  1.00  0.00    -0.353 OA
ATOM     11  C   UNL     1     -17.532 -21.722  17.340  1.00  0.00     0.198 C 
ENDBRANCH   5  10
BRANCH   6  12
ATOM     12  O   UNL     1     -18.122 -21.587  13.387  1.00  0.00    -0.385 OA
ATOM     13  H   UNL     1     -18.306 -22.394  12.865  1.00  0.00     0.211 HD
ENDBRANCH   6  12
BRANCH   8  14
ATOM     14  O   UNL     1     -15.991 -21.261  11.501  1.00  0.00    -0.387 OA
ATOM     15  H   UNL     1     -15.942 -20.448  10.957  1.00  0.00     0.211 HD
ENDBRANCH   8  14
BRANCH   9  16
ATOM     16  O   UNL     1     -13.691 -19.935  12.468  1.00  0.00    -0.384 OA
ATOM     17  H   UNL     1     -14.254 -19.787  11.682  1.00  0.00     0.211 HD
ENDBRANCH   9  16
ENDBRANCH   3   4
ENDBRANCH   1   3
BRANCH   1  18
ATOM     18  C   UNL     1     -15.618 -18.333  17.042  1.00  0.00     0.067 A 
ATOM     19  C   UNL     1     -16.754 -17.794  16.412  1.00  0.00     0.066 A 
ATOM     20  C   UNL     1     -15.650 -18.630  18.414  1.00  0.00     0.066 A 
ATOM     21  C   UNL     1     -17.906 -17.560  17.154  1.00  0.00     0.162 A 
ATOM     22  C   UNL     1     -16.811 -18.387  19.136  1.00  0.00     0.162 A 
ATOM     23  C   UNL     1     -17.933 -17.856  18.512  1.00  0.00     0.200 A 
BRANCH  21  24
ATOM     24  O   UNL     1     -19.039 -17.041  16.594  1.00  0.00    -0.504 OA
ATOM     25  H   UNL     1     -19.155 -16.130  16.922  1.00  0.00     0.293 HD
ENDBRANCH  21  24
BRANCH  22  26
ATOM     26  O   UNL     1     -16.842 -18.673  20.469  1.00  0.00    -0.504 OA
ATOM     27  H   UNL     1     -15.917 -18.553  20.770  1.00  0.00     0.293 HD
ENDBRANCH  22  26
BRANCH  23  28
ATOM     28  O   UNL     1     -19.061 -17.629  19.253  1.00  0.00    -0.502 OA
ATOM     29  H   UNL     1     -19.745 -17.401  18.589  1.00  0.00     0.293 HD
ENDBRANCH  23  28
ENDBRANCH   1  18
TORSDOF 10
ENDMDL
