MODEL 1
REMARK VINA RESULT:    -5.668      0.000      0.000
REMARK INTER + INTRA:          -9.091
REMARK INTER:                  -8.153
REMARK INTRA:                  -0.938
REMARK UNBOUND:                -0.938
REMARK SMILES O=C([O-])C1=CO[C@@H](O[C@@H]2O[C@H](CO)[C@@H](O)[C@H](O)[C@H]2O)[C@@H]2[C@@H](CO)CC[C@H]12
REMARK SMILES IDX 8 1 7 2 24 3 25 4 21 5 26 6 20 7 4 8 5 9 6 10 22 11 23 12
REMARK SMILES IDX 2 14 1 15 3 16 9 17 18 18 10 19 16 20 11 21 14 22 19 23
REMARK SMILES IDX 17 25 12 27 13 28 15 30
REMARK H PARENT 23 13 19 24 17 26 13 29 15 31
ROOT
ATOM      1  O   UNL     1     -16.486 -19.976  15.755  1.00  0.00    -0.310 OA
ENDROOT
BRANCH   1   2
ATOM      2  C   UNL     1     -16.470 -18.560  15.994  1.00  0.00     0.313 C 
ATOM      3  C   UNL     1     -17.938 -16.924  19.090  1.00  0.00     0.007 C 
ATOM      4  C   UNL     1     -17.089 -18.043  19.688  1.00  0.00     0.009 C 
ATOM      5  C   UNL     1     -17.471 -16.817  17.643  1.00  0.00     0.024 C 
ATOM      6  C   UNL     1     -16.560 -18.884  18.506  1.00  0.00     0.034 C 
ATOM      7  C   UNL     1     -17.275 -18.296  17.268  1.00  0.00     0.071 C 
ATOM      8  C   UNL     1     -15.063 -18.804  18.360  1.00  0.00     0.013 C 
ATOM      9  C   UNL     1     -14.477 -18.378  17.233  1.00  0.00     0.196 C 
ATOM     10  O   UNL     1     -15.133 -18.043  16.076  1.00  0.00    -0.472 OA
BRANCH   5  11
ATOM     11  C   UNL     1     -18.469 -16.070  16.769  1.00  0.00     0.160 C 
BRANCH  11  12
ATOM     12  O   UNL     1     -19.582 -16.894  16.448  1.00  0.00    -0.396 OA
ATOM     13  H   UNL     1     -20.211 -16.346  15.944  1.00  0.00     0.210 HD
ENDBRANCH  11  12
ENDBRANCH   5  11
BRANCH   8  14
ATOM     14  C   UNL     1     -14.176 -19.234  19.546  1.00  0.00     0.071 C 
ATOM     15  O   UNL     1     -13.338 -18.377  19.945  1.00  0.00    -0.545 OA
ATOM     16  O   UNL     1     -14.397 -20.404  19.971  1.00  0.00    -0.545 OA
ENDBRANCH   8  14
ENDBRANCH   1   2
BRANCH   1  17
ATOM     17  C   UNL     1     -16.260 -20.299  14.388  1.00  0.00     0.286 C 
ATOM     18  C   UNL     1     -14.951 -21.109  14.352  1.00  0.00     0.202 C 
ATOM     19  O   UNL     1     -17.351 -21.079  13.891  1.00  0.00    -0.341 OA
ATOM     20  C   UNL     1     -14.692 -21.600  12.932  1.00  0.00     0.179 C 
ATOM     21  C   UNL     1     -17.155 -21.485  12.524  1.00  0.00     0.178 C 
ATOM     22  C   UNL     1     -15.904 -22.361  12.394  1.00  0.00     0.177 C 
BRANCH  18  23
ATOM     23  O   UNL     1     -13.818 -20.333  14.767  1.00  0.00    -0.385 OA
ATOM     24  H   UNL     1     -13.043 -20.937  14.733  1.00  0.00     0.211 HD
ENDBRANCH  18  23
BRANCH  20  25
ATOM     25  O   UNL     1     -13.543 -22.465  12.901  1.00  0.00    -0.387 OA
ATOM     26  H   UNL     1     -12.903 -22.036  13.509  1.00  0.00     0.211 HD
ENDBRANCH  20  25
BRANCH  21  27
ATOM     27  C   UNL     1     -18.413 -22.245  12.089  1.00  0.00     0.191 C 
BRANCH  27  28
ATOM     28  O   UNL     1     -19.536 -21.800  12.854  1.00  0.00    -0.394 OA
ATOM     29  H   UNL     1     -20.269 -22.403  12.618  1.00  0.00     0.210 HD
ENDBRANCH  27  28
ENDBRANCH  21  27
BRANCH  22  30
ATOM     30  O   UNL     1     -15.660 -22.729  11.033  1.00  0.00    -0.387 OA
ATOM     31  H   UNL     1     -15.907 -21.937  10.512  1.00  0.00     0.211 HD
ENDBRANCH  22  30
ENDBRANCH   1  17
TORSDOF 10
ENDMDL
MODEL 2
REMARK VINA RESULT:    -5.534      3.015      5.028
REMARK INTER + INTRA:          -8.899
REMARK INTER:                  -8.198
REMARK INTRA:                  -0.701
REMARK UNBOUND:                -0.938
REMARK SMILES O=C([O-])C1=CO[C@@H](O[C@@H]2O[C@H](CO)[C@@H](O)[C@H](O)[C@H]2O)[C@@H]2[C@@H](CO)CC[C@H]12
REMARK SMILES IDX 8 1 7 2 24 3 25 4 21 5 26 6 20 7 4 8 5 9 6 10 22 11 23 12
REMARK SMILES IDX 2 14 1 15 3 16 9 17 18 18 10 19 16 20 11 21 14 22 19 23
REMARK SMILES IDX 17 25 12 27 13 28 15 30
REMARK H PARENT 23 13 19 24 17 26 13 29 15 31
ROOT
ATOM      1  O   UNL     1     -18.680 -21.036  18.134  1.00  0.00    -0.310 OA
ENDROOT
BRANCH   1   2
ATOM      2  C   UNL     1     -17.487 -20.599  18.802  1.00  0.00     0.313 C 
ATOM      3  C   UNL     1     -14.764 -18.544  17.135  1.00  0.00     0.007 C 
ATOM      4  C   UNL     1     -16.028 -17.777  16.752  1.00  0.00     0.009 C 
ATOM      5  C   UNL     1     -15.205 -19.480  18.255  1.00  0.00     0.024 C 
ATOM      6  C   UNL     1     -17.226 -18.614  17.249  1.00  0.00     0.034 C 
ATOM      7  C   UNL     1     -16.591 -19.927  17.760  1.00  0.00     0.071 C 
ATOM      8  C   UNL     1     -18.005 -17.924  18.339  1.00  0.00     0.013 C 
ATOM      9  C   UNL     1     -18.189 -18.479  19.545  1.00  0.00     0.196 C 
ATOM     10  O   UNL     1     -17.777 -19.735  19.911  1.00  0.00    -0.472 OA
BRANCH   5  11
ATOM     11  C   UNL     1     -14.217 -20.616  18.480  1.00  0.00     0.160 C 
BRANCH  11  12
ATOM     12  O   UNL     1     -14.068 -20.895  19.866  1.00  0.00    -0.396 OA
ATOM     13  H   UNL     1     -13.118 -20.825  20.074  1.00  0.00     0.210 HD
ENDBRANCH  11  12
ENDBRANCH   5  11
BRANCH   8  14
ATOM     14  C   UNL     1     -18.615 -16.537  18.054  1.00  0.00     0.071 C 
ATOM     15  O   UNL     1     -18.575 -15.712  19.010  1.00  0.00    -0.545 OA
ATOM     16  O   UNL     1     -19.087 -16.399  16.890  1.00  0.00    -0.545 OA
ENDBRANCH   8  14
ENDBRANCH   1   2
BRANCH   1  17
ATOM     17  C   UNL     1     -18.488 -22.249  17.416  1.00  0.00     0.286 C 
ATOM     18  C   UNL     1     -19.764 -23.082  17.636  1.00  0.00     0.202 C 
ATOM     19  O   UNL     1     -18.305 -21.963  16.027  1.00  0.00    -0.341 OA
ATOM     20  C   UNL     1     -19.695 -24.356  16.803  1.00  0.00     0.179 C 
ATOM     21  C   UNL     1     -18.160 -23.157  15.236  1.00  0.00     0.178 C 
ATOM     22  C   UNL     1     -19.418 -24.028  15.335  1.00  0.00     0.177 C 
BRANCH  18  23
ATOM     23  O   UNL     1     -19.939 -23.459  19.010  1.00  0.00    -0.385 OA
ATOM     24  H   UNL     1     -19.100 -23.891  19.286  1.00  0.00     0.211 HD
ENDBRANCH  18  23
BRANCH  20  25
ATOM     25  O   UNL     1     -20.930 -25.087  16.895  1.00  0.00    -0.387 OA
ATOM     26  H   UNL     1     -21.622 -24.407  16.745  1.00  0.00     0.211 HD
ENDBRANCH  20  25
BRANCH  21  27
ATOM     27  C   UNL     1     -17.900 -22.719  13.791  1.00  0.00     0.191 C 
BRANCH  27  28
ATOM     28  O   UNL     1     -19.002 -21.942  13.315  1.00  0.00    -0.394 OA
ATOM     29  H   UNL     1     -19.502 -21.680  14.114  1.00  0.00     0.210 HD
ENDBRANCH  27  28
ENDBRANCH  21  27
BRANCH  22  30
ATOM     30  O   UNL     1     -19.271 -25.247  14.602  1.00  0.00    -0.387 OA
ATOM     31  H   UNL     1     -19.702 -25.072  13.739  1.00  0.00     0.211 HD
ENDBRANCH  22  30
ENDBRANCH   1  17
TORSDOF 10
ENDMDL
MODEL 3
REMARK VINA RESULT:    -5.397      2.378      4.158
REMARK INTER + INTRA:          -8.701
REMARK INTER:                  -8.227
REMARK INTRA:                  -0.474
REMARK UNBOUND:                -0.938
REMARK SMILES O=C([O-])C1=CO[C@@H](O[C@@H]2O[C@H](CO)[C@@H](O)[C@H](O)[C@H]2O)[C@@H]2[C@@H](CO)CC[C@H]12
REMARK SMILES IDX 8 1 7 2 24 3 25 4 21 5 26 6 20 7 4 8 5 9 6 10 22 11 23 12
REMARK SMILES IDX 2 14 1 15 3 16 9 17 18 18 10 19 16 20 11 21 14 22 19 23
REMARK SMILES IDX 17 25 12 27 13 28 15 30
REMARK H PARENT 23 13 19 24 17 26 13 29 15 31
ROOT
ATOM      1  O   UNL     1     -15.051 -17.783  16.140  1.00  0.00    -0.310 OA
ENDROOT
BRANCH   1   2
ATOM      2  C   UNL     1     -16.110 -18.721  16.381  1.00  0.00     0.313 C 
ATOM      3  C   UNL     1     -17.580 -19.416  19.812  1.00  0.00     0.007 C 
ATOM      4  C   UNL     1     -17.595 -17.890  19.757  1.00  0.00     0.009 C 
ATOM      5  C   UNL     1     -17.344 -19.851  18.370  1.00  0.00     0.024 C 
ATOM      6  C   UNL     1     -16.870 -17.482  18.457  1.00  0.00     0.034 C 
ATOM      7  C   UNL     1     -16.316 -18.810  17.894  1.00  0.00     0.071 C 
ATOM      8  C   UNL     1     -17.785 -16.809  17.467  1.00  0.00     0.013 C 
ATOM      9  C   UNL     1     -17.969 -17.284  16.228  1.00  0.00     0.196 C 
ATOM     10  O   UNL     1     -17.315 -18.361  15.686  1.00  0.00    -0.472 OA
BRANCH   5  11
ATOM     11  C   UNL     1     -16.873 -21.296  18.274  1.00  0.00     0.160 C 
BRANCH  11  12
ATOM     12  O   UNL     1     -17.475 -21.956  17.167  1.00  0.00    -0.396 OA
ATOM     13  H   UNL     1     -18.319 -22.329  17.478  1.00  0.00     0.210 HD
ENDBRANCH  11  12
ENDBRANCH   5  11
BRANCH   8  14
ATOM     14  C   UNL     1     -18.529 -15.528  17.893  1.00  0.00     0.071 C 
ATOM     15  O   UNL     1     -18.985 -15.523  19.071  1.00  0.00    -0.545 OA
ATOM     16  O   UNL     1     -18.594 -14.635  17.001  1.00  0.00    -0.545 OA
ENDBRANCH   8  14
ENDBRANCH   1   2
BRANCH   1  17
ATOM     17  C   UNL     1     -14.047 -18.305  15.278  1.00  0.00     0.286 C 
ATOM     18  C   UNL     1     -13.091 -19.111  16.175  1.00  0.00     0.202 C 
ATOM     19  O   UNL     1     -14.650 -19.150  14.294  1.00  0.00    -0.341 OA
ATOM     20  C   UNL     1     -12.044 -19.807  15.313  1.00  0.00     0.179 C 
ATOM     21  C   UNL     1     -13.678 -19.755  13.422  1.00  0.00     0.178 C 
ATOM     22  C   UNL     1     -12.712 -20.640  14.218  1.00  0.00     0.177 C 
BRANCH  18  23
ATOM     23  O   UNL     1     -12.404 -18.282  17.123  1.00  0.00    -0.385 OA
ATOM     24  H   UNL     1     -11.729 -17.781  16.614  1.00  0.00     0.211 HD
ENDBRANCH  18  23
BRANCH  20  25
ATOM     25  O   UNL     1     -11.219 -20.666  16.118  1.00  0.00    -0.387 OA
ATOM     26  H   UNL     1     -11.082 -21.461  15.559  1.00  0.00     0.211 HD
ENDBRANCH  20  25
BRANCH  21  27
ATOM     27  C   UNL     1     -14.446 -20.571  12.377  1.00  0.00     0.191 C 
BRANCH  27  28
ATOM     28  O   UNL     1     -13.617 -20.797  11.234  1.00  0.00    -0.394 OA
ATOM     29  H   UNL     1     -12.983 -20.051  11.219  1.00  0.00     0.210 HD
ENDBRANCH  27  28
ENDBRANCH  21  27
BRANCH  22  30
ATOM     30  O   UNL     1     -11.703 -21.205  13.377  1.00  0.00    -0.387 OA
ATOM     31  H   UNL     1     -12.198 -21.707  12.696  1.00  0.00     0.211 HD
ENDBRANCH  22  30
ENDBRANCH   1  17
TORSDOF 10
ENDMDL
MODEL 4
REMARK VINA RESULT:    -5.304      3.357      5.366
REMARK INTER + INTRA:          -8.567
REMARK INTER:                  -7.698
REMARK INTRA:                  -0.869
REMARK UNBOUND:                -0.938
REMARK SMILES O=C([O-])C1=CO[C@@H](O[C@@H]2O[C@H](CO)[C@@H](O)[C@H](O)[C@H]2O)[C@@H]2[C@@H](CO)CC[C@H]12
REMARK SMILES IDX 8 1 7 2 24 3 25 4 21 5 26 6 20 7 4 8 5 9 6 10 22 11 23 12
REMARK SMILES IDX 2 14 1 15 3 16 9 17 18 18 10 19 16 20 11 21 14 22 19 23
REMARK SMILES IDX 17 25 12 27 13 28 15 30
REMARK H PARENT 23 13 19 24 17 26 13 29 15 31
ROOT
ATOM      1  O   UNL     1     -17.632 -20.372  19.379  1.00  0.00    -0.310 OA
ENDROOT
BRANCH   1   2
ATOM      2  C   UNL     1     -16.459 -19.546  19.347  1.00  0.00     0.313 C 
ATOM      3  C   UNL     1     -14.899 -18.217  16.150  1.00  0.00     0.007 C 
ATOM      4  C   UNL     1     -16.372 -17.862  15.962  1.00  0.00     0.009 C 
ATOM      5  C   UNL     1     -14.772 -18.566  17.629  1.00  0.00     0.024 C 
ATOM      6  C   UNL     1     -17.139 -18.497  17.142  1.00  0.00     0.034 C 
ATOM      7  C   UNL     1     -16.076 -19.342  17.879  1.00  0.00     0.071 C 
ATOM      8  C   UNL     1     -17.751 -17.470  18.058  1.00  0.00     0.013 C 
ATOM      9  C   UNL     1     -17.461 -17.416  19.365  1.00  0.00     0.196 C 
ATOM     10  O   UNL     1     -16.658 -18.302  20.036  1.00  0.00    -0.472 OA
BRANCH   5  11
ATOM     11  C   UNL     1     -13.501 -19.349  17.929  1.00  0.00     0.160 C 
BRANCH  11  12
ATOM     12  O   UNL     1     -12.353 -18.665  17.443  1.00  0.00    -0.396 OA
ATOM     13  H   UNL     1     -12.263 -17.848  17.965  1.00  0.00     0.210 HD
ENDBRANCH  11  12
ENDBRANCH   5  11
BRANCH   8  14
ATOM     14  C   UNL     1     -18.751 -16.452  17.472  1.00  0.00     0.071 C 
ATOM     15  O   UNL     1     -18.680 -15.281  17.940  1.00  0.00    -0.545 OA
ATOM     16  O   UNL     1     -19.527 -16.923  16.593  1.00  0.00    -0.545 OA
ENDBRANCH   8  14
ENDBRANCH   1   2
BRANCH   1  17
ATOM     17  C   UNL     1     -17.443 -21.612  18.707  1.00  0.00     0.286 C 
ATOM     18  C   UNL     1     -17.473 -22.698  19.798  1.00  0.00     0.202 C 
ATOM     19  O   UNL     1     -18.500 -21.814  17.764  1.00  0.00    -0.341 OA
ATOM     20  C   UNL     1     -17.394 -24.076  19.151  1.00  0.00     0.179 C 
ATOM     21  C   UNL     1     -18.395 -23.081  17.088  1.00  0.00     0.178 C 
ATOM     22  C   UNL     1     -18.483 -24.238  18.090  1.00  0.00     0.177 C 
BRANCH  18  23
ATOM     23  O   UNL     1     -16.378 -22.576  20.718  1.00  0.00    -0.385 OA
ATOM     24  H   UNL     1     -15.582 -22.901  20.242  1.00  0.00     0.211 HD
ENDBRANCH  18  23
BRANCH  20  25
ATOM     25  O   UNL     1     -17.548 -25.107  20.142  1.00  0.00    -0.387 OA
ATOM     26  H   UNL     1     -16.752 -25.015  20.710  1.00  0.00     0.211 HD
ENDBRANCH  20  25
BRANCH  21  27
ATOM     27  C   UNL     1     -19.531 -23.146  16.062  1.00  0.00     0.191 C 
BRANCH  27  28
ATOM     28  O   UNL     1     -20.689 -23.735  16.658  1.00  0.00    -0.394 OA
ATOM     29  H   UNL     1     -21.175 -22.994  17.073  1.00  0.00     0.210 HD
ENDBRANCH  27  28
ENDBRANCH  21  27
BRANCH  22  30
ATOM     30  O   UNL     1     -18.324 -25.504  17.444  1.00  0.00    -0.387 OA
ATOM     31  H   UNL     1     -19.202 -25.934  17.518  1.00  0.00     0.211 HD
ENDBRANCH  22  30
ENDBRANCH   1  17
TORSDOF 10
ENDMDL
MODEL 5
REMARK VINA RESULT:    -5.247      2.872      3.748
REMARK INTER + INTRA:          -8.486
REMARK INTER:                  -7.477
REMARK INTRA:                  -1.009
REMARK UNBOUND:                -0.938
REMARK SMILES O=C([O-])C1=CO[C@@H](O[C@@H]2O[C@H](CO)[C@@H](O)[C@H](O)[C@H]2O)[C@@H]2[C@@H](CO)CC[C@H]12
REMARK SMILES IDX 8 1 7 2 24 3 25 4 21 5 26 6 20 7 4 8 5 9 6 10 22 11 23 12
REMARK SMILES IDX 2 14 1 15 3 16 9 17 18 18 10 19 16 20 11 21 14 22 19 23
REMARK SMILES IDX 17 25 12 27 13 28 15 30
REMARK H PARENT 23 13 19 24 17 26 13 29 15 31
ROOT
ATOM      1  O   UNL     1     -16.163 -21.095  16.853  1.00  0.00    -0.310 OA
ENDROOT
BRANCH   1   2
ATOM      2  C   UNL     1     -16.135 -19.666  16.714  1.00  0.00     0.313 C 
ATOM      3  C   UNL     1     -17.559 -17.264  19.286  1.00  0.00     0.007 C 
ATOM      4  C   UNL     1     -16.712 -18.196  20.149  1.00  0.00     0.009 C 
ATOM      5  C   UNL     1     -17.106 -17.543  17.857  1.00  0.00     0.024 C 
ATOM      6  C   UNL     1     -16.202 -19.321  19.224  1.00  0.00     0.034 C 
ATOM      7  C   UNL     1     -16.925 -19.071  17.881  1.00  0.00     0.071 C 
ATOM      8  C   UNL     1     -14.705 -19.297  19.050  1.00  0.00     0.013 C 
ATOM      9  C   UNL     1     -14.128 -19.186  17.847  1.00  0.00     0.196 C 
ATOM     10  O   UNL     1     -14.793 -19.159  16.647  1.00  0.00    -0.472 OA
BRANCH   5  11
ATOM     11  C   UNL     1     -18.107 -17.041  16.826  1.00  0.00     0.160 C 
BRANCH  11  12
ATOM     12  O   UNL     1     -19.434 -17.408  17.183  1.00  0.00    -0.396 OA
ATOM     13  H   UNL     1     -19.370 -18.021  17.937  1.00  0.00     0.210 HD
ENDBRANCH  11  12
ENDBRANCH   5  11
BRANCH   8  14
ATOM     14  C   UNL     1     -13.810 -19.411  20.300  1.00  0.00     0.071 C 
ATOM     15  O   UNL     1     -14.074 -20.370  21.079  1.00  0.00    -0.545 OA
ATOM     16  O   UNL     1     -12.919 -18.520  20.393  1.00  0.00    -0.545 OA
ENDBRANCH   8  14
ENDBRANCH   1   2
BRANCH   1  17
ATOM     17  C   UNL     1     -17.484 -21.621  16.790  1.00  0.00     0.286 C 
ATOM     18  C   UNL     1     -17.547 -22.462  15.502  1.00  0.00     0.202 C 
ATOM     19  O   UNL     1     -17.732 -22.437  17.939  1.00  0.00    -0.341 OA
ATOM     20  C   UNL     1     -18.898 -23.162  15.413  1.00  0.00     0.179 C 
ATOM     21  C   UNL     1     -19.036 -23.045  17.906  1.00  0.00     0.178 C 
ATOM     22  C   UNL     1     -19.176 -23.963  16.686  1.00  0.00     0.177 C 
BRANCH  18  23
ATOM     23  O   UNL     1     -17.383 -21.662  14.321  1.00  0.00    -0.385 OA
ATOM     24  H   UNL     1     -16.432 -21.717  14.081  1.00  0.00     0.211 HD
ENDBRANCH  18  23
BRANCH  20  25
ATOM     25  O   UNL     1     -18.930 -24.051  14.284  1.00  0.00    -0.387 OA
ATOM     26  H   UNL     1     -19.084 -24.937  14.679  1.00  0.00     0.211 HD
ENDBRANCH  20  25
BRANCH  21  27
ATOM     27  C   UNL     1     -19.208 -23.828  19.213  1.00  0.00     0.191 C 
BRANCH  27  28
ATOM     28  O   UNL     1     -20.589 -24.140  19.412  1.00  0.00    -0.394 OA
ATOM     29  H   UNL     1     -20.740 -24.055  20.375  1.00  0.00     0.210 HD
ENDBRANCH  27  28
ENDBRANCH  21  27
BRANCH  22  30
ATOM     30  O   UNL     1     -20.485 -24.533  16.605  1.00  0.00    -0.387 OA
ATOM     31  H   UNL     1     -20.862 -24.421  17.503  1.00  0.00     0.211 HD
ENDBRANCH  22  30
ENDBRANCH   1  17
TORSDOF 10
ENDMDL
MODEL 6
REMARK VINA RESULT:    -5.209      2.438      3.246
REMARK INTER + INTRA:          -8.431
REMARK INTER:                  -7.379
REMARK INTRA:                  -1.052
REMARK UNBOUND:                -0.938
REMARK SMILES O=C([O-])C1=CO[C@@H](O[C@@H]2O[C@H](CO)[C@@H](O)[C@H](O)[C@H]2O)[C@@H]2[C@@H](CO)CC[C@H]12
REMARK SMILES IDX 8 1 7 2 24 3 25 4 21 5 26 6 20 7 4 8 5 9 6 10 22 11 23 12
REMARK SMILES IDX 2 14 1 15 3 16 9 17 18 18 10 19 16 20 11 21 14 22 19 23
REMARK SMILES IDX 17 25 12 27 13 28 15 30
REMARK H PARENT 23 13 19 24 17 26 13 29 15 31
ROOT
ATOM      1  O   UNL     1     -16.934 -21.444  17.894  1.00  0.00    -0.310 OA
ENDROOT
BRANCH   1   2
ATOM      2  C   UNL     1     -16.608 -20.171  17.315  1.00  0.00     0.313 C 
ATOM      3  C   UNL     1     -17.831 -16.849  18.688  1.00  0.00     0.007 C 
ATOM      4  C   UNL     1     -17.295 -17.539  19.941  1.00  0.00     0.009 C 
ATOM      5  C   UNL     1     -17.272 -17.667  17.529  1.00  0.00     0.024 C 
ATOM      6  C   UNL     1     -16.909 -18.976  19.530  1.00  0.00     0.034 C 
ATOM      7  C   UNL     1     -17.400 -19.102  18.070  1.00  0.00     0.071 C 
ATOM      8  C   UNL     1     -15.427 -19.231  19.630  1.00  0.00     0.013 C 
ATOM      9  C   UNL     1     -14.698 -19.626  18.579  1.00  0.00     0.196 C 
ATOM     10  O   UNL     1     -15.194 -19.918  17.334  1.00  0.00    -0.472 OA
BRANCH   5  11
ATOM     11  C   UNL     1     -18.022 -17.412  16.229  1.00  0.00     0.160 C 
BRANCH  11  12
ATOM     12  O   UNL     1     -19.298 -16.836  16.481  1.00  0.00    -0.396 OA
ATOM     13  H   UNL     1     -19.841 -17.519  16.914  1.00  0.00     0.210 HD
ENDBRANCH  11  12
ENDBRANCH   5  11
BRANCH   8  14
ATOM     14  C   UNL     1     -14.730 -19.035  20.992  1.00  0.00     0.071 C 
ATOM     15  O   UNL     1     -13.954 -18.042  21.074  1.00  0.00    -0.545 OA
ATOM     16  O   UNL     1     -15.020 -19.905  21.862  1.00  0.00    -0.545 OA
ENDBRANCH   8  14
ENDBRANCH   1   2
BRANCH   1  17
ATOM     17  C   UNL     1     -17.247 -22.424  16.911  1.00  0.00     0.286 C 
ATOM     18  C   UNL     1     -18.667 -22.918  17.240  1.00  0.00     0.202 C 
ATOM     19  O   UNL     1     -17.207 -21.831  15.610  1.00  0.00    -0.341 OA
ATOM     20  C   UNL     1     -19.133 -23.892  16.164  1.00  0.00     0.179 C 
ATOM     21  C   UNL     1     -17.570 -22.762  14.574  1.00  0.00     0.178 C 
ATOM     22  C   UNL     1     -19.004 -23.264  14.775  1.00  0.00     0.177 C 
BRANCH  18  23
ATOM     23  O   UNL     1     -18.730 -23.593  18.505  1.00  0.00    -0.385 OA
ATOM     24  H   UNL     1     -18.163 -23.078  19.121  1.00  0.00     0.211 HD
ENDBRANCH  18  23
BRANCH  20  25
ATOM     25  O   UNL     1     -20.503 -24.268  16.383  1.00  0.00    -0.387 OA
ATOM     26  H   UNL     1     -20.502 -25.246  16.289  1.00  0.00     0.211 HD
ENDBRANCH  20  25
BRANCH  21  27
ATOM     27  C   UNL     1     -17.419 -22.034  13.233  1.00  0.00     0.191 C 
BRANCH  27  28
ATOM     28  O   UNL     1     -18.705 -21.637  12.751  1.00  0.00    -0.394 OA
ATOM     29  H   UNL     1     -19.133 -21.174  13.499  1.00  0.00     0.210 HD
ENDBRANCH  27  28
ENDBRANCH  21  27
BRANCH  22  30
ATOM     30  O   UNL     1     -19.364 -24.233  13.787  1.00  0.00    -0.387 OA
ATOM     31  H   UNL     1     -19.079 -25.092  14.164  1.00  0.00     0.211 HD
ENDBRANCH  22  30
ENDBRANCH   1  17
TORSDOF 10
ENDMDL
MODEL 7
REMARK VINA RESULT:    -5.131      3.514      5.802
REMARK INTER + INTRA:          -8.319
REMARK INTER:                  -7.233
REMARK INTRA:                  -1.086
REMARK UNBOUND:                -0.938
REMARK SMILES O=C([O-])C1=CO[C@@H](O[C@@H]2O[C@H](CO)[C@@H](O)[C@H](O)[C@H]2O)[C@@H]2[C@@H](CO)CC[C@H]12
REMARK SMILES IDX 8 1 7 2 24 3 25 4 21 5 26 6 20 7 4 8 5 9 6 10 22 11 23 12
REMARK SMILES IDX 2 14 1 15 3 16 9 17 18 18 10 19 16 20 11 21 14 22 19 23
REMARK SMILES IDX 17 25 12 27 13 28 15 30
REMARK H PARENT 23 13 19 24 17 26 13 29 15 31
ROOT
ATOM      1  O   UNL     1     -18.671 -20.758  17.948  1.00  0.00    -0.310 OA
ENDROOT
BRANCH   1   2
ATOM      2  C   UNL     1     -17.640 -20.096  18.696  1.00  0.00     0.313 C 
ATOM      3  C   UNL     1     -14.706 -18.286  17.104  1.00  0.00     0.007 C 
ATOM      4  C   UNL     1     -15.894 -17.719  16.330  1.00  0.00     0.009 C 
ATOM      5  C   UNL     1     -15.327 -18.971  18.317  1.00  0.00     0.024 C 
ATOM      6  C   UNL     1     -17.142 -18.504  16.788  1.00  0.00     0.034 C 
ATOM      7  C   UNL     1     -16.581 -19.617  17.701  1.00  0.00     0.071 C 
ATOM      8  C   UNL     1     -18.133 -17.641  17.527  1.00  0.00     0.013 C 
ATOM      9  C   UNL     1     -18.528 -17.918  18.776  1.00  0.00     0.196 C 
ATOM     10  O   UNL     1     -18.160 -19.025  19.498  1.00  0.00    -0.472 OA
BRANCH   5  11
ATOM     11  C   UNL     1     -14.369 -19.952  18.978  1.00  0.00     0.160 C 
BRANCH  11  12
ATOM     12  O   UNL     1     -14.143 -19.606  20.339  1.00  0.00    -0.396 OA
ATOM     13  H   UNL     1     -13.474 -20.223  20.686  1.00  0.00     0.210 HD
ENDBRANCH  11  12
ENDBRANCH   5  11
BRANCH   8  14
ATOM     14  C   UNL     1     -18.715 -16.403  16.816  1.00  0.00     0.071 C 
ATOM     15  O   UNL     1     -18.399 -15.285  17.312  1.00  0.00    -0.545 OA
ATOM     16  O   UNL     1     -19.446 -16.664  15.818  1.00  0.00    -0.545 OA
ENDBRANCH   8  14
ENDBRANCH   1   2
BRANCH   1  17
ATOM     17  C   UNL     1     -18.738 -22.151  18.230  1.00  0.00     0.286 C 
ATOM     18  C   UNL     1     -18.203 -22.866  16.976  1.00  0.00     0.202 C 
ATOM     19  O   UNL     1     -17.925 -22.452  19.368  1.00  0.00    -0.341 OA
ATOM     20  C   UNL     1     -18.129 -24.367  17.233  1.00  0.00     0.179 C 
ATOM     21  C   UNL     1     -17.907 -23.859  19.671  1.00  0.00     0.178 C 
ATOM     22  C   UNL     1     -17.323 -24.658  18.500  1.00  0.00     0.177 C 
BRANCH  18  23
ATOM     23  O   UNL     1     -19.040 -22.654  15.829  1.00  0.00    -0.385 OA
ATOM     24  H   UNL     1     -18.603 -23.116  15.080  1.00  0.00     0.211 HD
ENDBRANCH  18  23
BRANCH  20  25
ATOM     25  O   UNL     1     -17.514 -25.039  16.121  1.00  0.00    -0.387 OA
ATOM     26  H   UNL     1     -17.815 -25.969  16.205  1.00  0.00     0.211 HD
ENDBRANCH  20  25
BRANCH  21  27
ATOM     27  C   UNL     1     -17.070 -24.042  20.941  1.00  0.00     0.191 C 
BRANCH  27  28
ATOM     28  O   UNL     1     -17.445 -25.256  21.597  1.00  0.00    -0.394 OA
ATOM     29  H   UNL     1     -17.053 -25.202  22.492  1.00  0.00     0.210 HD
ENDBRANCH  27  28
ENDBRANCH  21  27
BRANCH  22  30
ATOM     30  O   UNL     1     -17.349 -26.064  18.759  1.00  0.00    -0.387 OA
ATOM     31  H   UNL     1     -16.483 -26.393  18.440  1.00  0.00     0.211 HD
ENDBRANCH  22  30
ENDBRANCH   1  17
TORSDOF 10
ENDMDL
MODEL 8
REMARK VINA RESULT:    -5.046      1.508      2.733
REMARK INTER + INTRA:          -8.197
REMARK INTER:                  -7.225
REMARK INTRA:                  -0.971
REMARK UNBOUND:                -0.938
REMARK SMILES O=C([O-])C1=CO[C@@H](O[C@@H]2O[C@H](CO)[C@@H](O)[C@H](O)[C@H]2O)[C@@H]2[C@@H](CO)CC[C@H]12
REMARK SMILES IDX 8 1 7 2 24 3 25 4 21 5 26 6 20 7 4 8 5 9 6 10 22 11 23 12
REMARK SMILES IDX 2 14 1 15 3 16 9 17 18 18 10 19 16 20 11 21 14 22 19 23
REMARK SMILES IDX 17 25 12 27 13 28 15 30
REMARK H PARENT 23 13 19 24 17 26 13 29 15 31
ROOT
ATOM      1  O   UNL     1     -15.071 -20.890  17.128  1.00  0.00    -0.310 OA
ENDROOT
BRANCH   1   2
ATOM      2  C   UNL     1     -15.230 -19.464  17.161  1.00  0.00     0.313 C 
ATOM      3  C   UNL     1     -17.801 -17.674  19.307  1.00  0.00     0.007 C 
ATOM      4  C   UNL     1     -17.151 -18.627  20.309  1.00  0.00     0.009 C 
ATOM      5  C   UNL     1     -16.858 -17.672  18.109  1.00  0.00     0.024 C 
ATOM      6  C   UNL     1     -16.186 -19.527  19.508  1.00  0.00     0.034 C 
ATOM      7  C   UNL     1     -16.450 -19.153  18.031  1.00  0.00     0.071 C 
ATOM      8  C   UNL     1     -14.742 -19.304  19.877  1.00  0.00     0.013 C 
ATOM      9  C   UNL     1     -13.823 -18.940  18.974  1.00  0.00     0.196 C 
ATOM     10  O   UNL     1     -14.044 -18.801  17.628  1.00  0.00    -0.472 OA
BRANCH   5  11
ATOM     11  C   UNL     1     -17.525 -17.133  16.851  1.00  0.00     0.160 C 
BRANCH  11  12
ATOM     12  O   UNL     1     -18.929 -17.355  16.884  1.00  0.00    -0.396 OA
ATOM     13  H   UNL     1     -19.174 -17.513  17.813  1.00  0.00     0.210 HD
ENDBRANCH  11  12
ENDBRANCH   5  11
BRANCH   8  14
ATOM     14  C   UNL     1     -14.310 -19.509  21.343  1.00  0.00     0.071 C 
ATOM     15  O   UNL     1     -13.803 -18.502  21.913  1.00  0.00    -0.545 OA
ATOM     16  O   UNL     1     -14.513 -20.673  21.794  1.00  0.00    -0.545 OA
ENDBRANCH   8  14
ENDBRANCH   1   2
BRANCH   1  17
ATOM     17  C   UNL     1     -15.069 -21.406  15.802  1.00  0.00     0.286 C 
ATOM     18  C   UNL     1     -16.471 -21.121  15.232  1.00  0.00     0.202 C 
ATOM     19  O   UNL     1     -14.065 -20.743  15.028  1.00  0.00    -0.341 OA
ATOM     20  C   UNL     1     -16.522 -21.538  13.767  1.00  0.00     0.179 C 
ATOM     21  C   UNL     1     -14.050 -21.183  13.658  1.00  0.00     0.178 C 
ATOM     22  C   UNL     1     -15.390 -20.879  12.977  1.00  0.00     0.177 C 
BRANCH  18  23
ATOM     23  O   UNL     1     -17.500 -21.836  15.933  1.00  0.00    -0.385 OA
ATOM     24  H   UNL     1     -17.328 -21.697  16.890  1.00  0.00     0.211 HD
ENDBRANCH  18  23
BRANCH  20  25
ATOM     25  O   UNL     1     -17.782 -21.164  13.181  1.00  0.00    -0.387 OA
ATOM     26  H   UNL     1     -17.916 -21.820  12.462  1.00  0.00     0.211 HD
ENDBRANCH  20  25
BRANCH  21  27
ATOM     27  C   UNL     1     -12.895 -20.459  12.958  1.00  0.00     0.191 C 
BRANCH  27  28
ATOM     28  O   UNL     1     -13.408 -19.399  12.147  1.00  0.00    -0.394 OA
ATOM     29  H   UNL     1     -12.633 -18.850  11.913  1.00  0.00     0.210 HD
ENDBRANCH  27  28
ENDBRANCH  21  27
BRANCH  22  30
ATOM     30  O   UNL     1     -15.416 -21.360  11.631  1.00  0.00    -0.387 OA
ATOM     31  H   UNL     1     -16.093 -22.069  11.631  1.00  0.00     0.211 HD
ENDBRANCH  22  30
ENDBRANCH   1  17
TORSDOF 10
ENDMDL
MODEL 9
REMARK VINA RESULT:    -4.971      2.355      7.275
REMARK INTER + INTRA:          -8.089
REMARK INTER:                  -7.084
REMARK INTRA:                  -1.005
REMARK UNBOUND:                -0.938
REMARK SMILES O=C([O-])C1=CO[C@@H](O[C@@H]2O[C@H](CO)[C@@H](O)[C@H](O)[C@H]2O)[C@@H]2[C@@H](CO)CC[C@H]12
REMARK SMILES IDX 8 1 7 2 24 3 25 4 21 5 26 6 20 7 4 8 5 9 6 10 22 11 23 12
REMARK SMILES IDX 2 14 1 15 3 16 9 17 18 18 10 19 16 20 11 21 14 22 19 23
REMARK SMILES IDX 17 25 12 27 13 28 15 30
REMARK H PARENT 23 13 19 24 17 26 13 29 15 31
ROOT
ATOM      1  O   UNL     1     -15.733 -20.364  19.782  1.00  0.00    -0.310 OA
ENDROOT
BRANCH   1   2
ATOM      2  C   UNL     1     -16.979 -19.781  19.369  1.00  0.00     0.313 C 
ATOM      3  C   UNL     1     -17.242 -16.731  17.123  1.00  0.00     0.007 C 
ATOM      4  C   UNL     1     -16.253 -17.610  16.360  1.00  0.00     0.009 C 
ATOM      5  C   UNL     1     -17.870 -17.663  18.153  1.00  0.00     0.024 C 
ATOM      6  C   UNL     1     -15.944 -18.823  17.263  1.00  0.00     0.034 C 
ATOM      7  C   UNL     1     -16.658 -18.501  18.595  1.00  0.00     0.071 C 
ATOM      8  C   UNL     1     -16.439 -20.122  16.680  1.00  0.00     0.013 C 
ATOM      9  C   UNL     1     -17.301 -20.914  17.330  1.00  0.00     0.196 C 
ATOM     10  O   UNL     1     -17.772 -20.699  18.601  1.00  0.00    -0.472 OA
BRANCH   5  11
ATOM     11  C   UNL     1     -18.556 -16.900  19.278  1.00  0.00     0.160 C 
BRANCH  11  12
ATOM     12  O   UNL     1     -18.681 -15.521  18.956  1.00  0.00    -0.396 OA
ATOM     13  H   UNL     1     -18.997 -15.468  18.036  1.00  0.00     0.210 HD
ENDBRANCH  11  12
ENDBRANCH   5  11
BRANCH   8  14
ATOM     14  C   UNL     1     -15.929 -20.555  15.290  1.00  0.00     0.071 C 
ATOM     15  O   UNL     1     -14.691 -20.791  15.208  1.00  0.00    -0.545 OA
ATOM     16  O   UNL     1     -16.822 -20.614  14.397  1.00  0.00    -0.545 OA
ENDBRANCH   8  14
ENDBRANCH   1   2
BRANCH   1  17
ATOM     17  C   UNL     1     -15.179 -19.711  20.919  1.00  0.00     0.286 C 
ATOM     18  C   UNL     1     -14.837 -20.824  21.925  1.00  0.00     0.202 C 
ATOM     19  O   UNL     1     -14.000 -18.997  20.536  1.00  0.00    -0.341 OA
ATOM     20  C   UNL     1     -14.126 -20.223  23.132  1.00  0.00     0.179 C 
ATOM     21  C   UNL     1     -13.359 -18.358  21.655  1.00  0.00     0.178 C 
ATOM     22  C   UNL     1     -12.917 -19.398  22.691  1.00  0.00     0.177 C 
BRANCH  18  23
ATOM     23  O   UNL     1     -16.006 -21.511  22.396  1.00  0.00    -0.385 OA
ATOM     24  H   UNL     1     -16.422 -21.921  21.606  1.00  0.00     0.211 HD
ENDBRANCH  18  23
BRANCH  20  25
ATOM     25  O   UNL     1     -13.686 -21.260  24.026  1.00  0.00    -0.387 OA
ATOM     26  H   UNL     1     -13.422 -20.780  24.840  1.00  0.00     0.211 HD
ENDBRANCH  20  25
BRANCH  21  27
ATOM     27  C   UNL     1     -12.162 -17.573  21.109  1.00  0.00     0.191 C 
BRANCH  27  28
ATOM     28  O   UNL     1     -10.971 -18.354  21.239  1.00  0.00    -0.394 OA
ATOM     29  H   UNL     1     -10.243 -17.707  21.334  1.00  0.00     0.210 HD
ENDBRANCH  27  28
ENDBRANCH  21  27
BRANCH  22  30
ATOM     30  O   UNL     1     -12.328 -18.778  23.838  1.00  0.00    -0.387 OA
ATOM     31  H   UNL     1     -12.642 -17.850  23.809  1.00  0.00     0.211 HD
ENDBRANCH  22  30
ENDBRANCH   1  17
TORSDOF 10
ENDMDL
