MODEL 1
REMARK VINA RESULT:    -5.644      0.000      0.000
REMARK INTER + INTRA:          -9.082
REMARK INTER:                  -8.119
REMARK INTRA:                  -0.963
REMARK UNBOUND:                -0.963
REMARK SMILES O=C([O-])C1=CO[C@@H](O[C@@H]2O[C@H](CO)[C@@H](O)[C@H](O)[C@H]2O)[C@@H]2[C@@H](CO)CC[C@H]12
REMARK SMILES IDX 8 1 7 2 24 3 25 4 21 5 26 6 20 7 4 8 5 9 6 10 22 11 23 12
REMARK SMILES IDX 2 14 1 15 3 16 9 17 18 18 10 19 16 20 11 21 14 22 19 23
REMARK SMILES IDX 17 25 12 27 13 28 15 30
REMARK H PARENT 23 13 19 24 17 26 13 29 15 31
ROOT
ATOM      1  O   UNL     1     -16.460 -20.064  15.784  1.00  0.00    -0.310 OA
ENDROOT
BRANCH   1   2
ATOM      2  C   UNL     1     -16.439 -18.648  16.023  1.00  0.00     0.313 C 
ATOM      3  C   UNL     1     -17.906 -17.007  19.117  1.00  0.00     0.007 C 
ATOM      4  C   UNL     1     -17.062 -18.130  19.716  1.00  0.00     0.009 C 
ATOM      5  C   UNL     1     -17.435 -16.901  17.670  1.00  0.00     0.024 C 
ATOM      6  C   UNL     1     -16.535 -18.972  18.535  1.00  0.00     0.034 C 
ATOM      7  C   UNL     1     -17.245 -18.381  17.296  1.00  0.00     0.071 C 
ATOM      8  C   UNL     1     -15.037 -18.899  18.391  1.00  0.00     0.013 C 
ATOM      9  C   UNL     1     -14.448 -18.475  17.266  1.00  0.00     0.196 C 
ATOM     10  O   UNL     1     -15.100 -18.137  16.108  1.00  0.00    -0.472 OA
BRANCH   5  11
ATOM     11  C   UNL     1     -18.429 -16.149  16.795  1.00  0.00     0.160 C 
BRANCH  11  12
ATOM     12  O   UNL     1     -19.522 -16.984  16.433  1.00  0.00    -0.396 OA
ATOM     13  H   UNL     1     -20.137 -16.996  17.188  1.00  0.00     0.210 HD
ENDBRANCH  11  12
ENDBRANCH   5  11
BRANCH   8  14
ATOM     14  C   UNL     1     -14.154 -19.333  19.579  1.00  0.00     0.071 C 
ATOM     15  O   UNL     1     -13.352 -18.461  20.015  1.00  0.00    -0.545 OA
ATOM     16  O   UNL     1     -14.343 -20.521  19.968  1.00  0.00    -0.545 OA
ENDBRANCH   8  14
ENDBRANCH   1   2
BRANCH   1  17
ATOM     17  C   UNL     1     -16.250 -20.387  14.414  1.00  0.00     0.286 C 
ATOM     18  C   UNL     1     -14.957 -21.221  14.367  1.00  0.00     0.202 C 
ATOM     19  O   UNL     1     -17.359 -21.145  13.922  1.00  0.00    -0.341 OA
ATOM     20  C   UNL     1     -14.716 -21.712  12.944  1.00  0.00     0.179 C 
ATOM     21  C   UNL     1     -17.180 -21.551  12.553  1.00  0.00     0.178 C 
ATOM     22  C   UNL     1     -15.946 -22.449  12.411  1.00  0.00     0.177 C 
BRANCH  18  23
ATOM     23  O   UNL     1     -13.806 -20.467  14.776  1.00  0.00    -0.385 OA
ATOM     24  H   UNL     1     -13.280 -21.061  15.356  1.00  0.00     0.211 HD
ENDBRANCH  18  23
BRANCH  20  25
ATOM     25  O   UNL     1     -13.584 -22.598  12.902  1.00  0.00    -0.387 OA
ATOM     26  H   UNL     1     -13.824 -23.324  13.517  1.00  0.00     0.211 HD
ENDBRANCH  20  25
BRANCH  21  27
ATOM     27  C   UNL     1     -18.455 -22.285  12.124  1.00  0.00     0.191 C 
BRANCH  27  28
ATOM     28  O   UNL     1     -19.548 -21.880  12.952  1.00  0.00    -0.394 OA
ATOM     29  H   UNL     1     -19.915 -21.079  12.528  1.00  0.00     0.210 HD
ENDBRANCH  27  28
ENDBRANCH  21  27
BRANCH  22  30
ATOM     30  O   UNL     1     -15.718 -22.817  11.048  1.00  0.00    -0.387 OA
ATOM     31  H   UNL     1     -16.218 -22.157  10.525  1.00  0.00     0.211 HD
ENDBRANCH  22  30
ENDBRANCH   1  17
TORSDOF 10
ENDMDL
MODEL 2
REMARK VINA RESULT:    -5.573      2.973      4.996
REMARK INTER + INTRA:          -8.979
REMARK INTER:                  -8.251
REMARK INTRA:                  -0.728
REMARK UNBOUND:                -0.963
REMARK SMILES O=C([O-])C1=CO[C@@H](O[C@@H]2O[C@H](CO)[C@@H](O)[C@H](O)[C@H]2O)[C@@H]2[C@@H](CO)CC[C@H]12
REMARK SMILES IDX 8 1 7 2 24 3 25 4 21 5 26 6 20 7 4 8 5 9 6 10 22 11 23 12
REMARK SMILES IDX 2 14 1 15 3 16 9 17 18 18 10 19 16 20 11 21 14 22 19 23
REMARK SMILES IDX 17 25 12 27 13 28 15 30
REMARK H PARENT 23 13 19 24 17 26 13 29 15 31
ROOT
ATOM      1  O   UNL     1     -18.664 -21.053  18.123  1.00  0.00    -0.310 OA
ENDROOT
BRANCH   1   2
ATOM      2  C   UNL     1     -17.477 -20.605  18.795  1.00  0.00     0.313 C 
ATOM      3  C   UNL     1     -14.808 -18.455  17.161  1.00  0.00     0.007 C 
ATOM      4  C   UNL     1     -16.090 -17.708  16.801  1.00  0.00     0.009 C 
ATOM      5  C   UNL     1     -15.223 -19.425  18.263  1.00  0.00     0.024 C 
ATOM      6  C   UNL     1     -17.268 -18.581  17.285  1.00  0.00     0.034 C 
ATOM      7  C   UNL     1     -16.602 -19.891  17.763  1.00  0.00     0.071 C 
ATOM      8  C   UNL     1     -18.055 -17.933  18.394  1.00  0.00     0.013 C 
ATOM      9  C   UNL     1     -18.221 -18.517  19.587  1.00  0.00     0.196 C 
ATOM     10  O   UNL     1     -17.781 -19.772  19.924  1.00  0.00    -0.472 OA
BRANCH   5  11
ATOM     11  C   UNL     1     -14.209 -20.544  18.458  1.00  0.00     0.160 C 
BRANCH  11  12
ATOM     12  O   UNL     1     -14.048 -20.851  19.837  1.00  0.00    -0.396 OA
ATOM     13  H   UNL     1     -13.840 -20.017  20.295  1.00  0.00     0.210 HD
ENDBRANCH  11  12
ENDBRANCH   5  11
BRANCH   8  14
ATOM     14  C   UNL     1     -18.696 -16.553  18.142  1.00  0.00     0.071 C 
ATOM     15  O   UNL     1     -19.230 -16.394  17.009  1.00  0.00    -0.545 OA
ATOM     16  O   UNL     1     -18.601 -15.744  19.109  1.00  0.00    -0.545 OA
ENDBRANCH   8  14
ENDBRANCH   1   2
BRANCH   1  17
ATOM     17  C   UNL     1     -18.458 -22.263  17.403  1.00  0.00     0.286 C 
ATOM     18  C   UNL     1     -19.732 -23.103  17.608  1.00  0.00     0.202 C 
ATOM     19  O   UNL     1     -18.262 -21.971  16.017  1.00  0.00    -0.341 OA
ATOM     20  C   UNL     1     -19.646 -24.375  16.771  1.00  0.00     0.179 C 
ATOM     21  C   UNL     1     -18.103 -23.162  15.224  1.00  0.00     0.178 C 
ATOM     22  C   UNL     1     -19.356 -24.040  15.308  1.00  0.00     0.177 C 
BRANCH  18  23
ATOM     23  O   UNL     1     -19.918 -23.486  18.978  1.00  0.00    -0.385 OA
ATOM     24  H   UNL     1     -20.663 -24.126  18.987  1.00  0.00     0.211 HD
ENDBRANCH  18  23
BRANCH  20  25
ATOM     25  O   UNL     1     -20.878 -25.113  16.849  1.00  0.00    -0.387 OA
ATOM     26  H   UNL     1     -21.546 -24.439  17.102  1.00  0.00     0.211 HD
ENDBRANCH  20  25
BRANCH  21  27
ATOM     27  C   UNL     1     -17.830 -22.718  13.783  1.00  0.00     0.191 C 
BRANCH  27  28
ATOM     28  O   UNL     1     -18.925 -21.933  13.303  1.00  0.00    -0.394 OA
ATOM     29  H   UNL     1     -19.360 -22.481  12.619  1.00  0.00     0.210 HD
ENDBRANCH  27  28
ENDBRANCH  21  27
BRANCH  22  30
ATOM     30  O   UNL     1     -19.195 -25.256  14.572  1.00  0.00    -0.387 OA
ATOM     31  H   UNL     1     -19.047 -25.944  15.254  1.00  0.00     0.211 HD
ENDBRANCH  22  30
ENDBRANCH   1  17
TORSDOF 10
ENDMDL
MODEL 3
REMARK VINA RESULT:    -5.486      2.324      4.126
REMARK INTER + INTRA:          -8.854
REMARK INTER:                  -8.400
REMARK INTRA:                  -0.454
REMARK UNBOUND:                -0.963
REMARK SMILES O=C([O-])C1=CO[C@@H](O[C@@H]2O[C@H](CO)[C@@H](O)[C@H](O)[C@H]2O)[C@@H]2[C@@H](CO)CC[C@H]12
REMARK SMILES IDX 8 1 7 2 24 3 25 4 21 5 26 6 20 7 4 8 5 9 6 10 22 11 23 12
REMARK SMILES IDX 2 14 1 15 3 16 9 17 18 18 10 19 16 20 11 21 14 22 19 23
REMARK SMILES IDX 17 25 12 27 13 28 15 30
REMARK H PARENT 23 13 19 24 17 26 13 29 15 31
ROOT
ATOM      1  O   UNL     1     -15.208 -17.757  16.203  1.00  0.00    -0.310 OA
ENDROOT
BRANCH   1   2
ATOM      2  C   UNL     1     -16.339 -18.630  16.346  1.00  0.00     0.313 C 
ATOM      3  C   UNL     1     -17.916 -19.514  19.685  1.00  0.00     0.007 C 
ATOM      4  C   UNL     1     -17.818 -17.992  19.768  1.00  0.00     0.009 C 
ATOM      5  C   UNL     1     -17.689 -19.836  18.212  1.00  0.00     0.024 C 
ATOM      6  C   UNL     1     -17.041 -17.526  18.517  1.00  0.00     0.034 C 
ATOM      7  C   UNL     1     -16.578 -18.838  17.843  1.00  0.00     0.071 C 
ATOM      8  C   UNL     1     -17.886 -16.701  17.582  1.00  0.00     0.013 C 
ATOM      9  C   UNL     1     -18.082 -17.049  16.304  1.00  0.00     0.196 C 
ATOM     10  O   UNL     1     -17.501 -18.120  15.674  1.00  0.00    -0.472 OA
BRANCH   5  11
ATOM     11  C   UNL     1     -17.325 -21.298  17.992  1.00  0.00     0.160 C 
BRANCH  11  12
ATOM     12  O   UNL     1     -17.990 -21.822  16.850  1.00  0.00    -0.396 OA
ATOM     13  H   UNL     1     -17.303 -22.133  16.233  1.00  0.00     0.210 HD
ENDBRANCH  11  12
ENDBRANCH   5  11
BRANCH   8  14
ATOM     14  C   UNL     1     -18.539 -15.410  18.114  1.00  0.00     0.071 C 
ATOM     15  O   UNL     1     -18.926 -15.445  19.316  1.00  0.00    -0.545 OA
ATOM     16  O   UNL     1     -18.611 -14.470  17.271  1.00  0.00    -0.545 OA
ENDBRANCH   8  14
ENDBRANCH   1   2
BRANCH   1  17
ATOM     17  C   UNL     1     -14.221 -18.285  15.325  1.00  0.00     0.286 C 
ATOM     18  C   UNL     1     -13.225 -19.050  16.215  1.00  0.00     0.202 C 
ATOM     19  O   UNL     1     -14.838 -19.167  14.383  1.00  0.00    -0.341 OA
ATOM     20  C   UNL     1     -12.191 -19.752  15.341  1.00  0.00     0.179 C 
ATOM     21  C   UNL     1     -13.880 -19.779  13.499  1.00  0.00     0.178 C 
ATOM     22  C   UNL     1     -12.876 -20.625  14.290  1.00  0.00     0.177 C 
BRANCH  18  23
ATOM     23  O   UNL     1     -12.525 -18.184  17.121  1.00  0.00    -0.385 OA
ATOM     24  H   UNL     1     -13.202 -17.822  17.734  1.00  0.00     0.211 HD
ENDBRANCH  18  23
BRANCH  20  25
ATOM     25  O   UNL     1     -11.328 -20.574  16.144  1.00  0.00    -0.387 OA
ATOM     26  H   UNL     1     -11.536 -20.312  17.067  1.00  0.00     0.211 HD
ENDBRANCH  20  25
BRANCH  21  27
ATOM     27  C   UNL     1     -14.664 -20.635  12.499  1.00  0.00     0.191 C 
BRANCH  27  28
ATOM     28  O   UNL     1     -14.004 -20.625  11.231  1.00  0.00    -0.394 OA
ATOM     29  H   UNL     1     -13.844 -19.681  11.027  1.00  0.00     0.210 HD
ENDBRANCH  27  28
ENDBRANCH  21  27
BRANCH  22  30
ATOM     30  O   UNL     1     -11.883 -21.196  13.434  1.00  0.00    -0.387 OA
ATOM     31  H   UNL     1     -11.926 -22.159  13.609  1.00  0.00     0.211 HD
ENDBRANCH  22  30
ENDBRANCH   1  17
TORSDOF 10
ENDMDL
MODEL 4
REMARK VINA RESULT:    -5.368      3.331      5.316
REMARK INTER + INTRA:          -8.685
REMARK INTER:                  -7.837
REMARK INTRA:                  -0.848
REMARK UNBOUND:                -0.963
REMARK SMILES O=C([O-])C1=CO[C@@H](O[C@@H]2O[C@H](CO)[C@@H](O)[C@H](O)[C@H]2O)[C@@H]2[C@@H](CO)CC[C@H]12
REMARK SMILES IDX 8 1 7 2 24 3 25 4 21 5 26 6 20 7 4 8 5 9 6 10 22 11 23 12
REMARK SMILES IDX 2 14 1 15 3 16 9 17 18 18 10 19 16 20 11 21 14 22 19 23
REMARK SMILES IDX 17 25 12 27 13 28 15 30
REMARK H PARENT 23 13 19 24 17 26 13 29 15 31
ROOT
ATOM      1  O   UNL     1     -17.856 -20.278  19.193  1.00  0.00    -0.310 OA
ENDROOT
BRANCH   1   2
ATOM      2  C   UNL     1     -16.670 -19.477  19.303  1.00  0.00     0.313 C 
ATOM      3  C   UNL     1     -14.622 -18.312  16.325  1.00  0.00     0.007 C 
ATOM      4  C   UNL     1     -16.042 -17.935  15.908  1.00  0.00     0.009 C 
ATOM      5  C   UNL     1     -14.723 -18.602  17.819  1.00  0.00     0.024 C 
ATOM      6  C   UNL     1     -16.991 -18.507  16.984  1.00  0.00     0.034 C 
ATOM      7  C   UNL     1     -16.069 -19.341  17.902  1.00  0.00     0.071 C 
ATOM      8  C   UNL     1     -17.704 -17.431  17.760  1.00  0.00     0.013 C 
ATOM      9  C   UNL     1     -17.608 -17.328  19.092  1.00  0.00     0.196 C 
ATOM     10  O   UNL     1     -16.936 -18.202  19.908  1.00  0.00    -0.472 OA
BRANCH   5  11
ATOM     11  C   UNL     1     -13.531 -19.397  18.333  1.00  0.00     0.160 C 
BRANCH  11  12
ATOM     12  O   UNL     1     -12.306 -18.780  17.958  1.00  0.00    -0.396 OA
ATOM     13  H   UNL     1     -11.749 -19.469  17.553  1.00  0.00     0.210 HD
ENDBRANCH  11  12
ENDBRANCH   5  11
BRANCH   8  14
ATOM     14  C   UNL     1     -18.580 -16.418  16.994  1.00  0.00     0.071 C 
ATOM     15  O   UNL     1     -18.407 -15.204  17.295  1.00  0.00    -0.545 OA
ATOM     16  O   UNL     1     -19.374 -16.936  16.158  1.00  0.00    -0.545 OA
ENDBRANCH   8  14
ENDBRANCH   1   2
BRANCH   1  17
ATOM     17  C   UNL     1     -17.614 -21.521  18.545  1.00  0.00     0.286 C 
ATOM     18  C   UNL     1     -17.661 -22.593  19.648  1.00  0.00     0.202 C 
ATOM     19  O   UNL     1     -18.629 -21.759  17.565  1.00  0.00    -0.341 OA
ATOM     20  C   UNL     1     -17.527 -23.978  19.023  1.00  0.00     0.179 C 
ATOM     21  C   UNL     1     -18.471 -23.031  16.911  1.00  0.00     0.178 C 
ATOM     22  C   UNL     1     -18.571 -24.177  17.924  1.00  0.00     0.177 C 
BRANCH  18  23
ATOM     23  O   UNL     1     -16.605 -22.436  20.607  1.00  0.00    -0.385 OA
ATOM     24  H   UNL     1     -16.949 -22.789  21.457  1.00  0.00     0.211 HD
ENDBRANCH  18  23
BRANCH  20  25
ATOM     25  O   UNL     1     -17.695 -24.999  20.021  1.00  0.00    -0.387 OA
ATOM     26  H   UNL     1     -18.665 -25.146  20.054  1.00  0.00     0.211 HD
ENDBRANCH  20  25
BRANCH  21  27
ATOM     27  C   UNL     1     -19.565 -23.135  15.844  1.00  0.00     0.191 C 
BRANCH  27  28
ATOM     28  O   UNL     1     -20.768 -23.637  16.431  1.00  0.00    -0.394 OA
ATOM     29  H   UNL     1     -20.593 -24.580  16.622  1.00  0.00     0.210 HD
ENDBRANCH  27  28
ENDBRANCH  21  27
BRANCH  22  30
ATOM     30  O   UNL     1     -18.360 -25.448  17.302  1.00  0.00    -0.387 OA
ATOM     31  H   UNL     1     -18.423 -25.268  16.340  1.00  0.00     0.211 HD
ENDBRANCH  22  30
ENDBRANCH   1  17
TORSDOF 10
ENDMDL
MODEL 5
REMARK VINA RESULT:    -5.253      2.848      3.688
REMARK INTER + INTRA:          -8.520
REMARK INTER:                  -7.512
REMARK INTRA:                  -1.008
REMARK UNBOUND:                -0.963
REMARK SMILES O=C([O-])C1=CO[C@@H](O[C@@H]2O[C@H](CO)[C@@H](O)[C@H](O)[C@H]2O)[C@@H]2[C@@H](CO)CC[C@H]12
REMARK SMILES IDX 8 1 7 2 24 3 25 4 21 5 26 6 20 7 4 8 5 9 6 10 22 11 23 12
REMARK SMILES IDX 2 14 1 15 3 16 9 17 18 18 10 19 16 20 11 21 14 22 19 23
REMARK SMILES IDX 17 25 12 27 13 28 15 30
REMARK H PARENT 23 13 19 24 17 26 13 29 15 31
ROOT
ATOM      1  O   UNL     1     -16.163 -21.144  16.864  1.00  0.00    -0.310 OA
ENDROOT
BRANCH   1   2
ATOM      2  C   UNL     1     -16.124 -19.717  16.704  1.00  0.00     0.313 C 
ATOM      3  C   UNL     1     -17.513 -17.267  19.251  1.00  0.00     0.007 C 
ATOM      4  C   UNL     1     -16.668 -18.194  20.122  1.00  0.00     0.009 C 
ATOM      5  C   UNL     1     -17.071 -17.570  17.823  1.00  0.00     0.024 C 
ATOM      6  C   UNL     1     -16.172 -19.336  19.209  1.00  0.00     0.034 C 
ATOM      7  C   UNL     1     -16.902 -19.099  17.868  1.00  0.00     0.071 C 
ATOM      8  C   UNL     1     -14.677 -19.326  19.026  1.00  0.00     0.013 C 
ATOM      9  C   UNL     1     -14.107 -19.237  17.817  1.00  0.00     0.196 C 
ATOM     10  O   UNL     1     -14.779 -19.222  16.622  1.00  0.00    -0.472 OA
BRANCH   5  11
ATOM     11  C   UNL     1     -18.076 -17.075  16.791  1.00  0.00     0.160 C 
BRANCH  11  12
ATOM     12  O   UNL     1     -19.407 -17.364  17.197  1.00  0.00    -0.396 OA
ATOM     13  H   UNL     1     -19.469 -17.164  18.148  1.00  0.00     0.210 HD
ENDBRANCH  11  12
ENDBRANCH   5  11
BRANCH   8  14
ATOM     14  C   UNL     1     -13.774 -19.430  20.272  1.00  0.00     0.071 C 
ATOM     15  O   UNL     1     -13.027 -18.436  20.493  1.00  0.00    -0.545 OA
ATOM     16  O   UNL     1     -13.892 -20.509  20.919  1.00  0.00    -0.545 OA
ENDBRANCH   8  14
ENDBRANCH   1   2
BRANCH   1  17
ATOM     17  C   UNL     1     -17.488 -21.659  16.826  1.00  0.00     0.286 C 
ATOM     18  C   UNL     1     -17.586 -22.489  15.533  1.00  0.00     0.202 C 
ATOM     19  O   UNL     1     -17.718 -22.483  17.973  1.00  0.00    -0.341 OA
ATOM     20  C   UNL     1     -18.944 -23.179  15.468  1.00  0.00     0.179 C 
ATOM     21  C   UNL     1     -19.027 -23.081  17.964  1.00  0.00     0.178 C 
ATOM     22  C   UNL     1     -19.200 -23.987  16.740  1.00  0.00     0.177 C 
BRANCH  18  23
ATOM     23  O   UNL     1     -17.442 -21.681  14.355  1.00  0.00    -0.385 OA
ATOM     24  H   UNL     1     -17.723 -20.773  14.608  1.00  0.00     0.211 HD
ENDBRANCH  18  23
BRANCH  20  25
ATOM     25  O   UNL     1     -19.008 -24.058  14.332  1.00  0.00    -0.387 OA
ATOM     26  H   UNL     1     -19.455 -24.862  14.675  1.00  0.00     0.211 HD
ENDBRANCH  20  25
BRANCH  21  27
ATOM     27  C   UNL     1     -19.176 -23.873  19.268  1.00  0.00     0.191 C 
BRANCH  27  28
ATOM     28  O   UNL     1     -20.555 -24.172  19.496  1.00  0.00    -0.394 OA
ATOM     29  H   UNL     1     -20.638 -24.303  20.462  1.00  0.00     0.210 HD
ENDBRANCH  27  28
ENDBRANCH  21  27
BRANCH  22  30
ATOM     30  O   UNL     1     -20.515 -24.547  16.683  1.00  0.00    -0.387 OA
ATOM     31  H   UNL     1     -20.927 -24.304  17.539  1.00  0.00     0.211 HD
ENDBRANCH  22  30
ENDBRANCH   1  17
TORSDOF 10
ENDMDL
MODEL 6
REMARK VINA RESULT:    -5.240      2.401      3.242
REMARK INTER + INTRA:          -8.500
REMARK INTER:                  -7.462
REMARK INTRA:                  -1.038
REMARK UNBOUND:                -0.963
REMARK SMILES O=C([O-])C1=CO[C@@H](O[C@@H]2O[C@H](CO)[C@@H](O)[C@H](O)[C@H]2O)[C@@H]2[C@@H](CO)CC[C@H]12
REMARK SMILES IDX 8 1 7 2 24 3 25 4 21 5 26 6 20 7 4 8 5 9 6 10 22 11 23 12
REMARK SMILES IDX 2 14 1 15 3 16 9 17 18 18 10 19 16 20 11 21 14 22 19 23
REMARK SMILES IDX 17 25 12 27 13 28 15 30
REMARK H PARENT 23 13 19 24 17 26 13 29 15 31
ROOT
ATOM      1  O   UNL     1     -17.086 -21.384  17.861  1.00  0.00    -0.310 OA
ENDROOT
BRANCH   1   2
ATOM      2  C   UNL     1     -16.711 -20.120  17.293  1.00  0.00     0.313 C 
ATOM      3  C   UNL     1     -17.840 -16.766  18.669  1.00  0.00     0.007 C 
ATOM      4  C   UNL     1     -17.344 -17.480  19.924  1.00  0.00     0.009 C 
ATOM      5  C   UNL     1     -17.294 -17.596  17.512  1.00  0.00     0.024 C 
ATOM      6  C   UNL     1     -17.000 -18.927  19.510  1.00  0.00     0.034 C 
ATOM      7  C   UNL     1     -17.477 -19.029  18.043  1.00  0.00     0.071 C 
ATOM      8  C   UNL     1     -15.529 -19.231  19.627  1.00  0.00     0.013 C 
ATOM      9  C   UNL     1     -14.800 -19.645  18.582  1.00  0.00     0.196 C 
ATOM     10  O   UNL     1     -15.290 -19.915  17.330  1.00  0.00    -0.472 OA
BRANCH   5  11
ATOM     11  C   UNL     1     -18.020 -17.310  16.204  1.00  0.00     0.160 C 
BRANCH  11  12
ATOM     12  O   UNL     1     -19.375 -16.952  16.441  1.00  0.00    -0.396 OA
ATOM     13  H   UNL     1     -19.666 -16.410  15.685  1.00  0.00     0.210 HD
ENDBRANCH  11  12
ENDBRANCH   5  11
BRANCH   8  14
ATOM     14  C   UNL     1     -14.842 -19.066  20.998  1.00  0.00     0.071 C 
ATOM     15  O   UNL     1     -15.150 -19.923  21.873  1.00  0.00    -0.545 OA
ATOM     16  O   UNL     1     -14.055 -18.080  21.077  1.00  0.00    -0.545 OA
ENDBRANCH   8  14
ENDBRANCH   1   2
BRANCH   1  17
ATOM     17  C   UNL     1     -17.316 -22.379  16.870  1.00  0.00     0.286 C 
ATOM     18  C   UNL     1     -18.682 -23.006  17.204  1.00  0.00     0.202 C 
ATOM     19  O   UNL     1     -17.343 -21.771  15.575  1.00  0.00    -0.341 OA
ATOM     20  C   UNL     1     -19.065 -24.007  16.120  1.00  0.00     0.179 C 
ATOM     21  C   UNL     1     -17.627 -22.721  14.531  1.00  0.00     0.178 C 
ATOM     22  C   UNL     1     -19.007 -23.356  14.738  1.00  0.00     0.177 C 
BRANCH  18  23
ATOM     23  O   UNL     1     -18.672 -23.697  18.462  1.00  0.00    -0.385 OA
ATOM     24  H   UNL     1     -19.609 -23.904  18.670  1.00  0.00     0.211 HD
ENDBRANCH  18  23
BRANCH  20  25
ATOM     25  O   UNL     1     -20.393 -24.511  16.346  1.00  0.00    -0.387 OA
ATOM     26  H   UNL     1     -20.650 -24.130  17.213  1.00  0.00     0.211 HD
ENDBRANCH  20  25
BRANCH  21  27
ATOM     27  C   UNL     1     -17.556 -21.968  13.198  1.00  0.00     0.191 C 
BRANCH  27  28
ATOM     28  O   UNL     1     -18.877 -21.685  12.730  1.00  0.00    -0.394 OA
ATOM     29  H   UNL     1     -19.440 -22.402  13.086  1.00  0.00     0.210 HD
ENDBRANCH  27  28
ENDBRANCH  21  27
BRANCH  22  30
ATOM     30  O   UNL     1     -19.285 -24.344  13.742  1.00  0.00    -0.387 OA
ATOM     31  H   UNL     1     -19.080 -23.904  12.890  1.00  0.00     0.211 HD
ENDBRANCH  22  30
ENDBRANCH   1  17
TORSDOF 10
ENDMDL
MODEL 7
REMARK VINA RESULT:    -5.133      3.346      5.765
REMARK INTER + INTRA:          -8.346
REMARK INTER:                  -7.267
REMARK INTRA:                  -1.079
REMARK UNBOUND:                -0.963
REMARK SMILES O=C([O-])C1=CO[C@@H](O[C@@H]2O[C@H](CO)[C@@H](O)[C@H](O)[C@H]2O)[C@@H]2[C@@H](CO)CC[C@H]12
REMARK SMILES IDX 8 1 7 2 24 3 25 4 21 5 26 6 20 7 4 8 5 9 6 10 22 11 23 12
REMARK SMILES IDX 2 14 1 15 3 16 9 17 18 18 10 19 16 20 11 21 14 22 19 23
REMARK SMILES IDX 17 25 12 27 13 28 15 30
REMARK H PARENT 23 13 19 24 17 26 13 29 15 31
ROOT
ATOM      1  O   UNL     1     -18.672 -20.760  17.944  1.00  0.00    -0.310 OA
ENDROOT
BRANCH   1   2
ATOM      2  C   UNL     1     -17.650 -20.072  18.681  1.00  0.00     0.313 C 
ATOM      3  C   UNL     1     -14.732 -18.262  17.062  1.00  0.00     0.007 C 
ATOM      4  C   UNL     1     -15.924 -17.724  16.273  1.00  0.00     0.009 C 
ATOM      5  C   UNL     1     -15.349 -18.929  18.286  1.00  0.00     0.024 C 
ATOM      6  C   UNL     1     -17.164 -18.513  16.743  1.00  0.00     0.034 C 
ATOM      7  C   UNL     1     -16.593 -19.602  17.680  1.00  0.00     0.071 C 
ATOM      8  C   UNL     1     -18.167 -17.647  17.461  1.00  0.00     0.013 C 
ATOM      9  C   UNL     1     -18.563 -17.903  18.715  1.00  0.00     0.196 C 
ATOM     10  O   UNL     1     -18.185 -18.991  19.460  1.00  0.00    -0.472 OA
BRANCH   5  11
ATOM     11  C   UNL     1     -14.382 -19.887  18.970  1.00  0.00     0.160 C 
BRANCH  11  12
ATOM     12  O   UNL     1     -14.760 -20.113  20.322  1.00  0.00    -0.396 OA
ATOM     13  H   UNL     1     -14.706 -21.073  20.479  1.00  0.00     0.210 HD
ENDBRANCH  11  12
ENDBRANCH   5  11
BRANCH   8  14
ATOM     14  C   UNL     1     -18.760 -16.429  16.724  1.00  0.00     0.071 C 
ATOM     15  O   UNL     1     -19.493 -16.693  15.730  1.00  0.00    -0.545 OA
ATOM     16  O   UNL     1     -18.431 -15.309  17.209  1.00  0.00    -0.545 OA
ENDBRANCH   8  14
ENDBRANCH   1   2
BRANCH   1  17
ATOM     17  C   UNL     1     -18.725 -22.148  18.253  1.00  0.00     0.286 C 
ATOM     18  C   UNL     1     -18.258 -22.885  16.985  1.00  0.00     0.202 C 
ATOM     19  O   UNL     1     -17.852 -22.430  19.351  1.00  0.00    -0.341 OA
ATOM     20  C   UNL     1     -18.171 -24.381  17.264  1.00  0.00     0.179 C 
ATOM     21  C   UNL     1     -17.819 -23.832  19.677  1.00  0.00     0.178 C 
ATOM     22  C   UNL     1     -17.298 -24.652  18.491  1.00  0.00     0.177 C 
BRANCH  18  23
ATOM     23  O   UNL     1     -19.155 -22.692  15.881  1.00  0.00    -0.385 OA
ATOM     24  H   UNL     1     -20.062 -22.818  16.238  1.00  0.00     0.211 HD
ENDBRANCH  18  23
BRANCH  20  25
ATOM     25  O   UNL     1     -17.617 -25.074  16.133  1.00  0.00    -0.387 OA
ATOM     26  H   UNL     1     -18.022 -24.630  15.357  1.00  0.00     0.211 HD
ENDBRANCH  20  25
BRANCH  21  27
ATOM     27  C   UNL     1     -16.914 -23.994  20.904  1.00  0.00     0.191 C 
BRANCH  27  28
ATOM     28  O   UNL     1     -16.167 -22.794  21.115  1.00  0.00    -0.394 OA
ATOM     29  H   UNL     1     -16.830 -22.106  21.329  1.00  0.00     0.210 HD
ENDBRANCH  27  28
ENDBRANCH  21  27
BRANCH  22  30
ATOM     30  O   UNL     1     -17.311 -26.053  18.776  1.00  0.00    -0.387 OA
ATOM     31  H   UNL     1     -16.494 -26.400  18.361  1.00  0.00     0.211 HD
ENDBRANCH  22  30
ENDBRANCH   1  17
TORSDOF 10
ENDMDL
MODEL 8
REMARK VINA RESULT:    -5.043      1.451      2.678
REMARK INTER + INTRA:          -8.217
REMARK INTER:                  -7.228
REMARK INTRA:                  -0.989
REMARK UNBOUND:                -0.963
REMARK SMILES O=C([O-])C1=CO[C@@H](O[C@@H]2O[C@H](CO)[C@@H](O)[C@H](O)[C@H]2O)[C@@H]2[C@@H](CO)CC[C@H]12
REMARK SMILES IDX 8 1 7 2 24 3 25 4 21 5 26 6 20 7 4 8 5 9 6 10 22 11 23 12
REMARK SMILES IDX 2 14 1 15 3 16 9 17 18 18 10 19 16 20 11 21 14 22 19 23
REMARK SMILES IDX 17 25 12 27 13 28 15 30
REMARK H PARENT 23 13 19 24 17 26 13 29 15 31
ROOT
ATOM      1  O   UNL     1     -15.165 -20.881  17.111  1.00  0.00    -0.310 OA
ENDROOT
BRANCH   1   2
ATOM      2  C   UNL     1     -15.307 -19.453  17.111  1.00  0.00     0.313 C 
ATOM      3  C   UNL     1     -17.868 -17.584  19.202  1.00  0.00     0.007 C 
ATOM      4  C   UNL     1     -17.236 -18.522  20.228  1.00  0.00     0.009 C 
ATOM      5  C   UNL     1     -16.918 -17.620  18.009  1.00  0.00     0.024 C 
ATOM      6  C   UNL     1     -16.277 -19.451  19.453  1.00  0.00     0.034 C 
ATOM      7  C   UNL     1     -16.528 -19.108  17.967  1.00  0.00     0.071 C 
ATOM      8  C   UNL     1     -14.833 -19.238  19.826  1.00  0.00     0.013 C 
ATOM      9  C   UNL     1     -13.904 -18.905  18.920  1.00  0.00     0.196 C 
ATOM     10  O   UNL     1     -14.116 -18.794  17.570  1.00  0.00    -0.472 OA
BRANCH   5  11
ATOM     11  C   UNL     1     -17.572 -17.102  16.736  1.00  0.00     0.160 C 
BRANCH  11  12
ATOM     12  O   UNL     1     -18.982 -17.275  16.780  1.00  0.00    -0.396 OA
ATOM     13  H   UNL     1     -19.182 -17.817  17.564  1.00  0.00     0.210 HD
ENDBRANCH  11  12
ENDBRANCH   5  11
BRANCH   8  14
ATOM     14  C   UNL     1     -14.411 -19.415  21.299  1.00  0.00     0.071 C 
ATOM     15  O   UNL     1     -13.835 -18.424  21.828  1.00  0.00    -0.545 OA
ATOM     16  O   UNL     1     -14.693 -20.543  21.795  1.00  0.00    -0.545 OA
ENDBRANCH   8  14
ENDBRANCH   1   2
BRANCH   1  17
ATOM     17  C   UNL     1     -15.147 -21.425  15.796  1.00  0.00     0.286 C 
ATOM     18  C   UNL     1     -16.547 -21.171  15.210  1.00  0.00     0.202 C 
ATOM     19  O   UNL     1     -14.145 -20.766  15.016  1.00  0.00    -0.341 OA
ATOM     20  C   UNL     1     -16.582 -21.619  13.753  1.00  0.00     0.179 C 
ATOM     21  C   UNL     1     -14.114 -21.235  13.656  1.00  0.00     0.178 C 
ATOM     22  C   UNL     1     -15.452 -20.963  12.959  1.00  0.00     0.177 C 
BRANCH  18  23
ATOM     23  O   UNL     1     -17.572 -21.883  15.918  1.00  0.00    -0.385 OA
ATOM     24  H   UNL     1     -17.628 -21.473  16.809  1.00  0.00     0.211 HD
ENDBRANCH  18  23
BRANCH  20  25
ATOM     25  O   UNL     1     -17.841 -21.275  13.150  1.00  0.00    -0.387 OA
ATOM     26  H   UNL     1     -17.592 -20.792  12.333  1.00  0.00     0.211 HD
ENDBRANCH  20  25
BRANCH  21  27
ATOM     27  C   UNL     1     -12.962 -20.512  12.950  1.00  0.00     0.191 C 
BRANCH  27  28
ATOM     28  O   UNL     1     -13.476 -19.427  12.173  1.00  0.00    -0.394 OA
ATOM     29  H   UNL     1     -14.426 -19.369  12.401  1.00  0.00     0.210 HD
ENDBRANCH  27  28
ENDBRANCH  21  27
BRANCH  22  30
ATOM     30  O   UNL     1     -15.461 -21.473  11.623  1.00  0.00    -0.387 OA
ATOM     31  H   UNL     1     -14.546 -21.791  11.471  1.00  0.00     0.211 HD
ENDBRANCH  22  30
ENDBRANCH   1  17
TORSDOF 10
ENDMDL
MODEL 9
REMARK VINA RESULT:    -4.804      2.331      7.158
REMARK INTER + INTRA:          -7.873
REMARK INTER:                  -6.778
REMARK INTRA:                  -1.095
REMARK UNBOUND:                -0.963
REMARK SMILES O=C([O-])C1=CO[C@@H](O[C@@H]2O[C@H](CO)[C@@H](O)[C@H](O)[C@H]2O)[C@@H]2[C@@H](CO)CC[C@H]12
REMARK SMILES IDX 8 1 7 2 24 3 25 4 21 5 26 6 20 7 4 8 5 9 6 10 22 11 23 12
REMARK SMILES IDX 2 14 1 15 3 16 9 17 18 18 10 19 16 20 11 21 14 22 19 23
REMARK SMILES IDX 17 25 12 27 13 28 15 30
REMARK H PARENT 23 13 19 24 17 26 13 29 15 31
ROOT
ATOM      1  O   UNL     1     -13.003 -19.932  18.230  1.00  0.00    -0.310 OA
ENDROOT
BRANCH   1   2
ATOM      2  C   UNL     1     -14.361 -20.115  18.660  1.00  0.00     0.313 C 
ATOM      3  C   UNL     1     -17.153 -17.641  17.951  1.00  0.00     0.007 C 
ATOM      4  C   UNL     1     -16.514 -17.811  16.574  1.00  0.00     0.009 C 
ATOM      5  C   UNL     1     -16.598 -18.795  18.778  1.00  0.00     0.024 C 
ATOM      6  C   UNL     1     -15.256 -18.685  16.769  1.00  0.00     0.034 C 
ATOM      7  C   UNL     1     -15.136 -18.845  18.302  1.00  0.00     0.071 C 
ATOM      8  C   UNL     1     -15.367 -20.024  16.088  1.00  0.00     0.013 C 
ATOM      9  C   UNL     1     -15.252 -21.177  16.758  1.00  0.00     0.196 C 
ATOM     10  O   UNL     1     -14.951 -21.293  18.092  1.00  0.00    -0.472 OA
BRANCH   5  11
ATOM     11  C   UNL     1     -16.768 -18.566  20.274  1.00  0.00     0.160 C 
BRANCH  11  12
ATOM     12  O   UNL     1     -15.535 -18.192  20.876  1.00  0.00    -0.396 OA
ATOM     13  H   UNL     1     -14.923 -17.956  20.156  1.00  0.00     0.210 HD
ENDBRANCH  11  12
ENDBRANCH   5  11
BRANCH   8  14
ATOM     14  C   UNL     1     -15.614 -20.066  14.566  1.00  0.00     0.071 C 
ATOM     15  O   UNL     1     -16.805 -20.287  14.209  1.00  0.00    -0.545 OA
ATOM     16  O   UNL     1     -14.583 -19.876  13.860  1.00  0.00    -0.545 OA
ENDBRANCH   8  14
ENDBRANCH   1   2
BRANCH   1  17
ATOM     17  C   UNL     1     -12.140 -19.558  19.297  1.00  0.00     0.286 C 
ATOM     18  C   UNL     1     -11.832 -18.064  19.093  1.00  0.00     0.202 C 
ATOM     19  O   UNL     1     -12.800 -19.772  20.548  1.00  0.00    -0.341 OA
ATOM     20  C   UNL     1     -11.003 -17.547  20.263  1.00  0.00     0.179 C 
ATOM     21  C   UNL     1     -11.997 -19.360  21.669  1.00  0.00     0.178 C 
ATOM     22  C   UNL     1     -11.691 -17.859  21.593  1.00  0.00     0.177 C 
BRANCH  18  23
ATOM     23  O   UNL     1     -11.096 -17.818  17.886  1.00  0.00    -0.385 OA
ATOM     24  H   UNL     1     -11.344 -16.914  17.591  1.00  0.00     0.211 HD
ENDBRANCH  18  23
BRANCH  20  25
ATOM     25  O   UNL     1     -10.811 -16.126  20.157  1.00  0.00    -0.387 OA
ATOM     26  H   UNL     1     -11.614 -15.810  19.688  1.00  0.00     0.211 HD
ENDBRANCH  20  25
BRANCH  21  27
ATOM     27  C   UNL     1     -12.777 -19.704  22.942  1.00  0.00     0.191 C 
BRANCH  27  28
ATOM     28  O   UNL     1     -14.180 -19.691  22.668  1.00  0.00    -0.394 OA
ATOM     29  H   UNL     1     -14.312 -18.975  22.014  1.00  0.00     0.210 HD
ENDBRANCH  27  28
ENDBRANCH  21  27
BRANCH  22  30
ATOM     30  O   UNL     1     -10.845 -17.441  22.668  1.00  0.00    -0.387 OA
ATOM     31  H   UNL     1      -9.940 -17.688  22.384  1.00  0.00     0.211 HD
ENDBRANCH  22  30
ENDBRANCH   1  17
TORSDOF 10
ENDMDL
