MODEL 1
REMARK VINA RESULT:    -5.608      0.000      0.000
REMARK INTER + INTRA:          -9.054
REMARK INTER:                  -8.068
REMARK INTRA:                  -0.986
REMARK UNBOUND:                -0.986
REMARK SMILES O=C([O-])C1=CO[C@@H](O[C@@H]2O[C@H](CO)[C@@H](O)[C@H](O)[C@H]2O)[C@@H]2[C@@H](CO)CC[C@H]12
REMARK SMILES IDX 8 1 7 2 24 3 25 4 21 5 26 6 20 7 4 8 5 9 6 10 22 11 23 12
REMARK SMILES IDX 2 14 1 15 3 16 9 17 18 18 10 19 16 20 11 21 14 22 19 23
REMARK SMILES IDX 17 25 12 27 13 28 15 30
REMARK H PARENT 23 13 19 24 17 26 13 29 15 31
ROOT
ATOM      1  O   UNL     1     -16.454 -20.072  15.760  1.00  0.00    -0.310 OA
ENDROOT
BRANCH   1   2
ATOM      2  C   UNL     1     -16.415 -18.655  15.990  1.00  0.00     0.313 C 
ATOM      3  C   UNL     1     -17.896 -16.969  19.053  1.00  0.00     0.007 C 
ATOM      4  C   UNL     1     -17.077 -18.100  19.671  1.00  0.00     0.009 C 
ATOM      5  C   UNL     1     -17.405 -16.881  17.611  1.00  0.00     0.024 C 
ATOM      6  C   UNL     1     -16.548 -18.959  18.502  1.00  0.00     0.034 C 
ATOM      7  C   UNL     1     -17.233 -18.367  17.250  1.00  0.00     0.071 C 
ATOM      8  C   UNL     1     -15.047 -18.909  18.378  1.00  0.00     0.013 C 
ATOM      9  C   UNL     1     -14.437 -18.502  17.257  1.00  0.00     0.196 C 
ATOM     10  O   UNL     1     -15.069 -18.163  16.088  1.00  0.00    -0.472 OA
BRANCH   5  11
ATOM     11  C   UNL     1     -18.376 -16.121  16.717  1.00  0.00     0.160 C 
BRANCH  11  12
ATOM     12  O   UNL     1     -19.464 -16.950  16.326  1.00  0.00    -0.396 OA
ATOM     13  H   UNL     1     -19.776 -16.626  15.462  1.00  0.00     0.210 HD
ENDBRANCH  11  12
ENDBRANCH   5  11
BRANCH   8  14
ATOM     14  C   UNL     1     -14.186 -19.348  19.580  1.00  0.00     0.071 C 
ATOM     15  O   UNL     1     -13.408 -18.470  20.048  1.00  0.00    -0.545 OA
ATOM     16  O   UNL     1     -14.365 -20.545  19.946  1.00  0.00    -0.545 OA
ENDBRANCH   8  14
ENDBRANCH   1   2
BRANCH   1  17
ATOM     17  C   UNL     1     -16.259 -20.407  14.391  1.00  0.00     0.286 C 
ATOM     18  C   UNL     1     -14.976 -21.257  14.339  1.00  0.00     0.202 C 
ATOM     19  O   UNL     1     -17.381 -21.155  13.914  1.00  0.00    -0.341 OA
ATOM     20  C   UNL     1     -14.753 -21.760  12.918  1.00  0.00     0.179 C 
ATOM     21  C   UNL     1     -17.218 -21.573  12.546  1.00  0.00     0.178 C 
ATOM     22  C   UNL     1     -15.995 -22.487  12.401  1.00  0.00     0.177 C 
BRANCH  18  23
ATOM     23  O   UNL     1     -13.814 -20.513  14.734  1.00  0.00    -0.385 OA
ATOM     24  H   UNL     1     -14.043 -19.564  14.624  1.00  0.00     0.211 HD
ENDBRANCH  18  23
BRANCH  20  25
ATOM     25  O   UNL     1     -13.631 -22.659  12.873  1.00  0.00    -0.387 OA
ATOM     26  H   UNL     1     -13.529 -22.868  11.919  1.00  0.00     0.211 HD
ENDBRANCH  20  25
BRANCH  21  27
ATOM     27  C   UNL     1     -18.504 -22.296  12.133  1.00  0.00     0.191 C 
BRANCH  27  28
ATOM     28  O   UNL     1     -19.586 -21.873  12.967  1.00  0.00    -0.394 OA
ATOM     29  H   UNL     1     -19.687 -20.915  12.799  1.00  0.00     0.210 HD
ENDBRANCH  27  28
ENDBRANCH  21  27
BRANCH  22  30
ATOM     30  O   UNL     1     -15.783 -22.867  11.039  1.00  0.00    -0.387 OA
ATOM     31  H   UNL     1     -16.628 -22.658  10.587  1.00  0.00     0.211 HD
ENDBRANCH  22  30
ENDBRANCH   1  17
TORSDOF 10
ENDMDL
MODEL 2
REMARK VINA RESULT:    -5.569      2.984      4.981
REMARK INTER + INTRA:          -8.997
REMARK INTER:                  -8.246
REMARK INTRA:                  -0.751
REMARK UNBOUND:                -0.986
REMARK SMILES O=C([O-])C1=CO[C@@H](O[C@@H]2O[C@H](CO)[C@@H](O)[C@H](O)[C@H]2O)[C@@H]2[C@@H](CO)CC[C@H]12
REMARK SMILES IDX 8 1 7 2 24 3 25 4 21 5 26 6 20 7 4 8 5 9 6 10 22 11 23 12
REMARK SMILES IDX 2 14 1 15 3 16 9 17 18 18 10 19 16 20 11 21 14 22 19 23
REMARK SMILES IDX 17 25 12 27 13 28 15 30
REMARK H PARENT 23 13 19 24 17 26 13 29 15 31
ROOT
ATOM      1  O   UNL     1     -18.671 -21.037  18.067  1.00  0.00    -0.310 OA
ENDROOT
BRANCH   1   2
ATOM      2  C   UNL     1     -17.490 -20.597  18.755  1.00  0.00     0.313 C 
ATOM      3  C   UNL     1     -14.790 -18.454  17.162  1.00  0.00     0.007 C 
ATOM      4  C   UNL     1     -16.064 -17.699  16.790  1.00  0.00     0.009 C 
ATOM      5  C   UNL     1     -15.224 -19.426  18.255  1.00  0.00     0.024 C 
ATOM      6  C   UNL     1     -17.252 -18.568  17.255  1.00  0.00     0.034 C 
ATOM      7  C   UNL     1     -16.599 -19.883  17.737  1.00  0.00     0.071 C 
ATOM      8  C   UNL     1     -18.050 -17.920  18.357  1.00  0.00     0.013 C 
ATOM      9  C   UNL     1     -18.234 -18.509  19.546  1.00  0.00     0.196 C 
ATOM     10  O   UNL     1     -17.803 -19.767  19.883  1.00  0.00    -0.472 OA
BRANCH   5  11
ATOM     11  C   UNL     1     -14.218 -20.550  18.458  1.00  0.00     0.160 C 
BRANCH  11  12
ATOM     12  O   UNL     1     -13.994 -20.790  19.842  1.00  0.00    -0.396 OA
ATOM     13  H   UNL     1     -13.037 -20.929  19.959  1.00  0.00     0.210 HD
ENDBRANCH  11  12
ENDBRANCH   5  11
BRANCH   8  14
ATOM     14  C   UNL     1     -18.681 -16.536  18.102  1.00  0.00     0.071 C 
ATOM     15  O   UNL     1     -18.582 -15.705  19.048  1.00  0.00    -0.545 OA
ATOM     16  O   UNL     1     -19.230 -16.408  16.971  1.00  0.00    -0.545 OA
ENDBRANCH   8  14
ENDBRANCH   1   2
BRANCH   1  17
ATOM     17  C   UNL     1     -18.471 -22.264  17.374  1.00  0.00     0.286 C 
ATOM     18  C   UNL     1     -19.741 -23.100  17.615  1.00  0.00     0.202 C 
ATOM     19  O   UNL     1     -18.293 -22.005  15.978  1.00  0.00    -0.341 OA
ATOM     20  C   UNL     1     -19.664 -24.392  16.808  1.00  0.00     0.179 C 
ATOM     21  C   UNL     1     -18.141 -23.215  15.213  1.00  0.00     0.178 C 
ATOM     22  C   UNL     1     -19.392 -24.093  15.333  1.00  0.00     0.177 C 
BRANCH  18  23
ATOM     23  O   UNL     1     -19.910 -23.450  18.996  1.00  0.00    -0.385 OA
ATOM     24  H   UNL     1     -20.024 -22.603  19.483  1.00  0.00     0.211 HD
ENDBRANCH  18  23
BRANCH  20  25
ATOM     25  O   UNL     1     -20.893 -25.129  16.919  1.00  0.00    -0.387 OA
ATOM     26  H   UNL     1     -20.785 -25.656  17.740  1.00  0.00     0.211 HD
ENDBRANCH  20  25
BRANCH  21  27
ATOM     27  C   UNL     1     -17.887 -22.806  13.758  1.00  0.00     0.191 C 
BRANCH  27  28
ATOM     28  O   UNL     1     -18.917 -21.917  13.319  1.00  0.00    -0.394 OA
ATOM     29  H   UNL     1     -18.469 -21.066  13.139  1.00  0.00     0.210 HD
ENDBRANCH  27  28
ENDBRANCH  21  27
BRANCH  22  30
ATOM     30  O   UNL     1     -19.238 -25.326  14.625  1.00  0.00    -0.387 OA
ATOM     31  H   UNL     1     -18.834 -25.073  13.769  1.00  0.00     0.211 HD
ENDBRANCH  22  30
ENDBRANCH   1  17
TORSDOF 10
ENDMDL
MODEL 3
REMARK VINA RESULT:    -5.323      3.308      5.368
REMARK INTER + INTRA:          -8.643
REMARK INTER:                  -7.818
REMARK INTRA:                  -0.825
REMARK UNBOUND:                -0.986
REMARK SMILES O=C([O-])C1=CO[C@@H](O[C@@H]2O[C@H](CO)[C@@H](O)[C@H](O)[C@H]2O)[C@@H]2[C@@H](CO)CC[C@H]12
REMARK SMILES IDX 8 1 7 2 24 3 25 4 21 5 26 6 20 7 4 8 5 9 6 10 22 11 23 12
REMARK SMILES IDX 2 14 1 15 3 16 9 17 18 18 10 19 16 20 11 21 14 22 19 23
REMARK SMILES IDX 17 25 12 27 13 28 15 30
REMARK H PARENT 23 13 19 24 17 26 13 29 15 31
ROOT
ATOM      1  O   UNL     1     -17.844 -20.254  19.289  1.00  0.00    -0.310 OA
ENDROOT
BRANCH   1   2
ATOM      2  C   UNL     1     -16.652 -19.460  19.389  1.00  0.00     0.313 C 
ATOM      3  C   UNL     1     -14.604 -18.340  16.394  1.00  0.00     0.007 C 
ATOM      4  C   UNL     1     -16.022 -17.957  15.977  1.00  0.00     0.009 C 
ATOM      5  C   UNL     1     -14.703 -18.614  17.891  1.00  0.00     0.024 C 
ATOM      6  C   UNL     1     -16.972 -18.511  17.061  1.00  0.00     0.034 C 
ATOM      7  C   UNL     1     -16.054 -19.343  17.985  1.00  0.00     0.071 C 
ATOM      8  C   UNL     1     -17.676 -17.422  17.828  1.00  0.00     0.013 C 
ATOM      9  C   UNL     1     -17.576 -17.308  19.159  1.00  0.00     0.196 C 
ATOM     10  O   UNL     1     -16.908 -18.178  19.982  1.00  0.00    -0.472 OA
BRANCH   5  11
ATOM     11  C   UNL     1     -13.515 -19.412  18.411  1.00  0.00     0.160 C 
BRANCH  11  12
ATOM     12  O   UNL     1     -12.496 -19.510  17.424  1.00  0.00    -0.396 OA
ATOM     13  H   UNL     1     -12.613 -20.365  16.972  1.00  0.00     0.210 HD
ENDBRANCH  11  12
ENDBRANCH   5  11
BRANCH   8  14
ATOM     14  C   UNL     1     -18.547 -16.411  17.054  1.00  0.00     0.071 C 
ATOM     15  O   UNL     1     -19.351 -16.907  16.216  1.00  0.00    -0.545 OA
ATOM     16  O   UNL     1     -18.341 -15.201  17.355  1.00  0.00    -0.545 OA
ENDBRANCH   8  14
ENDBRANCH   1   2
BRANCH   1  17
ATOM     17  C   UNL     1     -17.618 -21.493  18.627  1.00  0.00     0.286 C 
ATOM     18  C   UNL     1     -17.612 -22.570  19.727  1.00  0.00     0.202 C 
ATOM     19  O   UNL     1     -18.670 -21.736  17.689  1.00  0.00    -0.341 OA
ATOM     20  C   UNL     1     -17.492 -23.950  19.092  1.00  0.00     0.179 C 
ATOM     21  C   UNL     1     -18.528 -23.004  17.023  1.00  0.00     0.178 C 
ATOM     22  C   UNL     1     -18.578 -24.155  18.035  1.00  0.00     0.177 C 
BRANCH  18  23
ATOM     23  O   UNL     1     -16.518 -22.407  20.643  1.00  0.00    -0.385 OA
ATOM     24  H   UNL     1     -15.698 -22.537  20.118  1.00  0.00     0.211 HD
ENDBRANCH  18  23
BRANCH  20  25
ATOM     25  O   UNL     1     -17.611 -24.977  20.092  1.00  0.00    -0.387 OA
ATOM     26  H   UNL     1     -16.796 -25.513  19.984  1.00  0.00     0.211 HD
ENDBRANCH  20  25
BRANCH  21  27
ATOM     27  C   UNL     1     -19.664 -23.114  16.001  1.00  0.00     0.191 C 
BRANCH  27  28
ATOM     28  O   UNL     1     -20.855 -23.569  16.648  1.00  0.00    -0.394 OA
ATOM     29  H   UNL     1     -21.537 -23.605  15.947  1.00  0.00     0.210 HD
ENDBRANCH  27  28
ENDBRANCH  21  27
BRANCH  22  30
ATOM     30  O   UNL     1     -18.382 -25.421  17.400  1.00  0.00    -0.387 OA
ATOM     31  H   UNL     1     -18.284 -25.210  16.448  1.00  0.00     0.211 HD
ENDBRANCH  22  30
ENDBRANCH   1  17
TORSDOF 10
ENDMDL
MODEL 4
REMARK VINA RESULT:    -5.305      2.365      4.269
REMARK INTER + INTRA:          -8.617
REMARK INTER:                  -8.165
REMARK INTRA:                  -0.452
REMARK UNBOUND:                -0.986
REMARK SMILES O=C([O-])C1=CO[C@@H](O[C@@H]2O[C@H](CO)[C@@H](O)[C@H](O)[C@H]2O)[C@@H]2[C@@H](CO)CC[C@H]12
REMARK SMILES IDX 8 1 7 2 24 3 25 4 21 5 26 6 20 7 4 8 5 9 6 10 22 11 23 12
REMARK SMILES IDX 2 14 1 15 3 16 9 17 18 18 10 19 16 20 11 21 14 22 19 23
REMARK SMILES IDX 17 25 12 27 13 28 15 30
REMARK H PARENT 23 13 19 24 17 26 13 29 15 31
ROOT
ATOM      1  O   UNL     1     -15.035 -17.810  16.134  1.00  0.00    -0.310 OA
ENDROOT
BRANCH   1   2
ATOM      2  C   UNL     1     -16.085 -18.757  16.378  1.00  0.00     0.313 C 
ATOM      3  C   UNL     1     -17.499 -19.502  19.823  1.00  0.00     0.007 C 
ATOM      4  C   UNL     1     -17.525 -17.975  19.786  1.00  0.00     0.009 C 
ATOM      5  C   UNL     1     -17.283 -19.919  18.372  1.00  0.00     0.024 C 
ATOM      6  C   UNL     1     -16.821 -17.548  18.480  1.00  0.00     0.034 C 
ATOM      7  C   UNL     1     -16.268 -18.866  17.893  1.00  0.00     0.071 C 
ATOM      8  C   UNL     1     -17.755 -16.869  17.512  1.00  0.00     0.013 C 
ATOM      9  C   UNL     1     -17.954 -17.330  16.271  1.00  0.00     0.196 C 
ATOM     10  O   UNL     1     -17.302 -18.397  15.706  1.00  0.00    -0.472 OA
BRANCH   5  11
ATOM     11  C   UNL     1     -16.805 -21.359  18.251  1.00  0.00     0.160 C 
BRANCH  11  12
ATOM     12  O   UNL     1     -16.311 -21.838  19.496  1.00  0.00    -0.396 OA
ATOM     13  H   UNL     1     -16.999 -22.414  19.876  1.00  0.00     0.210 HD
ENDBRANCH  11  12
ENDBRANCH   5  11
BRANCH   8  14
ATOM     14  C   UNL     1     -18.500 -15.597  17.965  1.00  0.00     0.071 C 
ATOM     15  O   UNL     1     -18.913 -15.598  19.159  1.00  0.00    -0.545 OA
ATOM     16  O   UNL     1     -18.609 -14.705  17.076  1.00  0.00    -0.545 OA
ENDBRANCH   8  14
ENDBRANCH   1   2
BRANCH   1  17
ATOM     17  C   UNL     1     -14.029 -18.324  15.268  1.00  0.00     0.286 C 
ATOM     18  C   UNL     1     -13.066 -19.125  16.163  1.00  0.00     0.202 C 
ATOM     19  O   UNL     1     -14.629 -19.173  14.285  1.00  0.00    -0.341 OA
ATOM     20  C   UNL     1     -12.016 -19.812  15.298  1.00  0.00     0.179 C 
ATOM     21  C   UNL     1     -13.654 -19.770  13.410  1.00  0.00     0.178 C 
ATOM     22  C   UNL     1     -12.680 -20.649  14.204  1.00  0.00     0.177 C 
BRANCH  18  23
ATOM     23  O   UNL     1     -12.383 -18.291  17.111  1.00  0.00    -0.385 OA
ATOM     24  H   UNL     1     -12.799 -17.403  17.047  1.00  0.00     0.211 HD
ENDBRANCH  18  23
BRANCH  20  25
ATOM     25  O   UNL     1     -11.183 -20.666  16.100  1.00  0.00    -0.387 OA
ATOM     26  H   UNL     1     -11.770 -21.414  16.346  1.00  0.00     0.211 HD
ENDBRANCH  20  25
BRANCH  21  27
ATOM     27  C   UNL     1     -14.419 -20.590  12.366  1.00  0.00     0.191 C 
BRANCH  27  28
ATOM     28  O   UNL     1     -13.630 -20.720  11.180  1.00  0.00    -0.394 OA
ATOM     29  H   UNL     1     -13.635 -19.834  10.765  1.00  0.00     0.210 HD
ENDBRANCH  27  28
ENDBRANCH  21  27
BRANCH  22  30
ATOM     30  O   UNL     1     -11.669 -21.206  13.360  1.00  0.00    -0.387 OA
ATOM     31  H   UNL     1     -12.163 -21.697  12.670  1.00  0.00     0.211 HD
ENDBRANCH  22  30
ENDBRANCH   1  17
TORSDOF 10
ENDMDL
MODEL 5
REMARK VINA RESULT:    -5.231      2.791      3.578
REMARK INTER + INTRA:          -8.510
REMARK INTER:                  -7.484
REMARK INTRA:                  -1.027
REMARK UNBOUND:                -0.986
REMARK SMILES O=C([O-])C1=CO[C@@H](O[C@@H]2O[C@H](CO)[C@@H](O)[C@H](O)[C@H]2O)[C@@H]2[C@@H](CO)CC[C@H]12
REMARK SMILES IDX 8 1 7 2 24 3 25 4 21 5 26 6 20 7 4 8 5 9 6 10 22 11 23 12
REMARK SMILES IDX 2 14 1 15 3 16 9 17 18 18 10 19 16 20 11 21 14 22 19 23
REMARK SMILES IDX 17 25 12 27 13 28 15 30
REMARK H PARENT 23 13 19 24 17 26 13 29 15 31
ROOT
ATOM      1  O   UNL     1     -16.137 -21.036  16.839  1.00  0.00    -0.310 OA
ENDROOT
BRANCH   1   2
ATOM      2  C   UNL     1     -16.137 -19.609  16.685  1.00  0.00     0.313 C 
ATOM      3  C   UNL     1     -17.498 -17.203  19.289  1.00  0.00     0.007 C 
ATOM      4  C   UNL     1     -16.603 -18.114  20.127  1.00  0.00     0.009 C 
ATOM      5  C   UNL     1     -17.096 -17.490  17.846  1.00  0.00     0.024 C 
ATOM      6  C   UNL     1     -16.111 -19.240  19.193  1.00  0.00     0.034 C 
ATOM      7  C   UNL     1     -16.890 -19.014  17.877  1.00  0.00     0.071 C 
ATOM      8  C   UNL     1     -14.623 -19.194  18.960  1.00  0.00     0.013 C 
ATOM      9  C   UNL     1     -14.095 -19.086  17.734  1.00  0.00     0.196 C 
ATOM     10  O   UNL     1     -14.807 -19.081  16.562  1.00  0.00    -0.472 OA
BRANCH   5  11
ATOM     11  C   UNL     1     -18.145 -17.014  16.850  1.00  0.00     0.160 C 
BRANCH  11  12
ATOM     12  O   UNL     1     -19.454 -17.359  17.285  1.00  0.00    -0.396 OA
ATOM     13  H   UNL     1     -19.390 -17.603  18.226  1.00  0.00     0.210 HD
ENDBRANCH  11  12
ENDBRANCH   5  11
BRANCH   8  14
ATOM     14  C   UNL     1     -13.678 -19.281  20.176  1.00  0.00     0.071 C 
ATOM     15  O   UNL     1     -12.838 -18.345  20.287  1.00  0.00    -0.545 OA
ATOM     16  O   UNL     1     -13.860 -20.292  20.913  1.00  0.00    -0.545 OA
ENDBRANCH   8  14
ENDBRANCH   1   2
BRANCH   1  17
ATOM     17  C   UNL     1     -17.443 -21.592  16.755  1.00  0.00     0.286 C 
ATOM     18  C   UNL     1     -17.460 -22.449  15.476  1.00  0.00     0.202 C 
ATOM     19  O   UNL     1     -17.698 -22.400  17.907  1.00  0.00    -0.341 OA
ATOM     20  C   UNL     1     -18.793 -23.181  15.366  1.00  0.00     0.179 C 
ATOM     21  C   UNL     1     -18.988 -23.037  17.854  1.00  0.00     0.178 C 
ATOM     22  C   UNL     1     -19.081 -23.972  16.642  1.00  0.00     0.177 C 
BRANCH  18  23
ATOM     23  O   UNL     1     -17.289 -21.660  14.289  1.00  0.00    -0.385 OA
ATOM     24  H   UNL     1     -17.932 -22.007  13.632  1.00  0.00     0.211 HD
ENDBRANCH  18  23
BRANCH  20  25
ATOM     25  O   UNL     1     -18.782 -24.083  14.247  1.00  0.00    -0.387 OA
ATOM     26  H   UNL     1     -18.864 -24.972  14.654  1.00  0.00     0.211 HD
ENDBRANCH  20  25
BRANCH  21  27
ATOM     27  C   UNL     1     -19.171 -23.808  19.166  1.00  0.00     0.191 C 
BRANCH  27  28
ATOM     28  O   UNL     1     -20.553 -24.125  19.352  1.00  0.00    -0.394 OA
ATOM     29  H   UNL     1     -20.953 -24.083  18.461  1.00  0.00     0.210 HD
ENDBRANCH  27  28
ENDBRANCH  21  27
BRANCH  22  30
ATOM     30  O   UNL     1     -20.375 -24.572  16.540  1.00  0.00    -0.387 OA
ATOM     31  H   UNL     1     -20.651 -24.729  17.468  1.00  0.00     0.211 HD
ENDBRANCH  22  30
ENDBRANCH   1  17
TORSDOF 10
ENDMDL
MODEL 6
REMARK VINA RESULT:    -5.102      3.488      5.765
REMARK INTER + INTRA:          -8.325
REMARK INTER:                  -7.225
REMARK INTRA:                  -1.101
REMARK UNBOUND:                -0.986
REMARK SMILES O=C([O-])C1=CO[C@@H](O[C@@H]2O[C@H](CO)[C@@H](O)[C@H](O)[C@H]2O)[C@@H]2[C@@H](CO)CC[C@H]12
REMARK SMILES IDX 8 1 7 2 24 3 25 4 21 5 26 6 20 7 4 8 5 9 6 10 22 11 23 12
REMARK SMILES IDX 2 14 1 15 3 16 9 17 18 18 10 19 16 20 11 21 14 22 19 23
REMARK SMILES IDX 17 25 12 27 13 28 15 30
REMARK H PARENT 23 13 19 24 17 26 13 29 15 31
ROOT
ATOM      1  O   UNL     1     -18.652 -20.765  17.931  1.00  0.00    -0.310 OA
ENDROOT
BRANCH   1   2
ATOM      2  C   UNL     1     -17.623 -20.116  18.695  1.00  0.00     0.313 C 
ATOM      3  C   UNL     1     -14.652 -18.329  17.147  1.00  0.00     0.007 C 
ATOM      4  C   UNL     1     -15.825 -17.747  16.361  1.00  0.00     0.009 C 
ATOM      5  C   UNL     1     -15.295 -19.013  18.349  1.00  0.00     0.024 C 
ATOM      6  C   UNL     1     -17.086 -18.521  16.800  1.00  0.00     0.034 C 
ATOM      7  C   UNL     1     -16.547 -19.644  17.715  1.00  0.00     0.071 C 
ATOM      8  C   UNL     1     -18.077 -17.652  17.529  1.00  0.00     0.013 C 
ATOM      9  C   UNL     1     -18.491 -17.929  18.772  1.00  0.00     0.196 C 
ATOM     10  O   UNL     1     -18.143 -19.043  19.494  1.00  0.00    -0.472 OA
BRANCH   5  11
ATOM     11  C   UNL     1     -14.355 -20.006  19.018  1.00  0.00     0.160 C 
BRANCH  11  12
ATOM     12  O   UNL     1     -14.515 -19.987  20.431  1.00  0.00    -0.396 OA
ATOM     13  H   UNL     1     -15.406 -19.639  20.615  1.00  0.00     0.210 HD
ENDBRANCH  11  12
ENDBRANCH   5  11
BRANCH   8  14
ATOM     14  C   UNL     1     -18.638 -16.404  16.816  1.00  0.00     0.071 C 
ATOM     15  O   UNL     1     -18.300 -15.292  17.309  1.00  0.00    -0.545 OA
ATOM     16  O   UNL     1     -19.376 -16.654  15.821  1.00  0.00    -0.545 OA
ENDBRANCH   8  14
ENDBRANCH   1   2
BRANCH   1  17
ATOM     17  C   UNL     1     -18.749 -22.155  18.220  1.00  0.00     0.286 C 
ATOM     18  C   UNL     1     -18.239 -22.887  16.965  1.00  0.00     0.202 C 
ATOM     19  O   UNL     1     -17.935 -22.469  19.354  1.00  0.00    -0.341 OA
ATOM     20  C   UNL     1     -18.198 -24.388  17.230  1.00  0.00     0.179 C 
ATOM     21  C   UNL     1     -17.947 -23.874  19.664  1.00  0.00     0.178 C 
ATOM     22  C   UNL     1     -17.390 -24.692  18.492  1.00  0.00     0.177 C 
BRANCH  18  23
ATOM     23  O   UNL     1     -19.079 -22.661  15.824  1.00  0.00    -0.385 OA
ATOM     24  H   UNL     1     -19.363 -21.721  15.872  1.00  0.00     0.211 HD
ENDBRANCH  18  23
BRANCH  20  25
ATOM     25  O   UNL     1     -17.606 -25.079  16.117  1.00  0.00    -0.387 OA
ATOM     26  H   UNL     1     -18.291 -25.727  15.844  1.00  0.00     0.211 HD
ENDBRANCH  20  25
BRANCH  21  27
ATOM     27  C   UNL     1     -17.106 -24.071  20.929  1.00  0.00     0.191 C 
BRANCH  27  28
ATOM     28  O   UNL     1     -17.520 -25.260  21.606  1.00  0.00    -0.394 OA
ATOM     29  H   UNL     1     -18.382 -25.041  22.014  1.00  0.00     0.210 HD
ENDBRANCH  27  28
ENDBRANCH  21  27
BRANCH  22  30
ATOM     30  O   UNL     1     -17.446 -26.096  18.759  1.00  0.00    -0.387 OA
ATOM     31  H   UNL     1     -16.589 -26.304  19.186  1.00  0.00     0.211 HD
ENDBRANCH  22  30
ENDBRANCH   1  17
TORSDOF 10
ENDMDL
MODEL 7
REMARK VINA RESULT:    -4.963      2.603      3.604
REMARK INTER + INTRA:          -8.125
REMARK INTER:                  -7.155
REMARK INTRA:                  -0.970
REMARK UNBOUND:                -0.986
REMARK SMILES O=C([O-])C1=CO[C@@H](O[C@@H]2O[C@H](CO)[C@@H](O)[C@H](O)[C@H]2O)[C@@H]2[C@@H](CO)CC[C@H]12
REMARK SMILES IDX 8 1 7 2 24 3 25 4 21 5 26 6 20 7 4 8 5 9 6 10 22 11 23 12
REMARK SMILES IDX 2 14 1 15 3 16 9 17 18 18 10 19 16 20 11 21 14 22 19 23
REMARK SMILES IDX 17 25 12 27 13 28 15 30
REMARK H PARENT 23 13 19 24 17 26 13 29 15 31
ROOT
ATOM      1  O   UNL     1     -15.978 -21.670  18.256  1.00  0.00    -0.310 OA
ENDROOT
BRANCH   1   2
ATOM      2  C   UNL     1     -15.788 -20.407  17.600  1.00  0.00     0.313 C 
ATOM      3  C   UNL     1     -17.495 -17.190  18.676  1.00  0.00     0.007 C 
ATOM      4  C   UNL     1     -16.940 -17.719  19.997  1.00  0.00     0.009 C 
ATOM      5  C   UNL     1     -16.778 -18.003  17.604  1.00  0.00     0.024 C 
ATOM      6  C   UNL     1     -16.352 -19.117  19.708  1.00  0.00     0.034 C 
ATOM      7  C   UNL     1     -16.748 -19.403  18.241  1.00  0.00     0.071 C 
ATOM      8  C   UNL     1     -14.857 -19.167  19.888  1.00  0.00     0.013 C 
ATOM      9  C   UNL     1     -14.031 -19.533  18.899  1.00  0.00     0.196 C 
ATOM     10  O   UNL     1     -14.422 -19.970  17.659  1.00  0.00    -0.472 OA
BRANCH   5  11
ATOM     11  C   UNL     1     -17.488 -17.935  16.258  1.00  0.00     0.160 C 
BRANCH  11  12
ATOM     12  O   UNL     1     -18.644 -17.111  16.333  1.00  0.00    -0.396 OA
ATOM     13  H   UNL     1     -18.592 -16.474  15.597  1.00  0.00     0.210 HD
ENDBRANCH  11  12
ENDBRANCH   5  11
BRANCH   8  14
ATOM     14  C   UNL     1     -14.261 -18.791  21.260  1.00  0.00     0.071 C 
ATOM     15  O   UNL     1     -14.564 -19.555  22.219  1.00  0.00    -0.545 OA
ATOM     16  O   UNL     1     -13.540 -17.753  21.254  1.00  0.00    -0.545 OA
ENDBRANCH   8  14
ENDBRANCH   1   2
BRANCH   1  17
ATOM     17  C   UNL     1     -16.774 -22.566  17.490  1.00  0.00     0.286 C 
ATOM     18  C   UNL     1     -18.171 -22.555  18.137  1.00  0.00     0.202 C 
ATOM     19  O   UNL     1     -16.841 -22.113  16.135  1.00  0.00    -0.341 OA
ATOM     20  C   UNL     1     -19.127 -23.404  17.307  1.00  0.00     0.179 C 
ATOM     21  C   UNL     1     -17.681 -22.950  15.319  1.00  0.00     0.178 C 
ATOM     22  C   UNL     1     -19.120 -22.952  15.846  1.00  0.00     0.177 C 
BRANCH  18  23
ATOM     23  O   UNL     1     -18.157 -23.082  19.473  1.00  0.00    -0.385 OA
ATOM     24  H   UNL     1     -18.660 -22.444  20.026  1.00  0.00     0.211 HD
ENDBRANCH  18  23
BRANCH  20  25
ATOM     25  O   UNL     1     -20.466 -23.305  17.823  1.00  0.00    -0.387 OA
ATOM     26  H   UNL     1     -20.775 -24.235  17.868  1.00  0.00     0.211 HD
ENDBRANCH  20  25
BRANCH  21  27
ATOM     27  C   UNL     1     -17.613 -22.408  13.888  1.00  0.00     0.191 C 
BRANCH  27  28
ATOM     28  O   UNL     1     -18.890 -21.888  13.506  1.00  0.00    -0.394 OA
ATOM     29  H   UNL     1     -18.698 -21.125  12.925  1.00  0.00     0.210 HD
ENDBRANCH  27  28
ENDBRANCH  21  27
BRANCH  22  30
ATOM     30  O   UNL     1     -19.958 -23.823  15.082  1.00  0.00    -0.387 OA
ATOM     31  H   UNL     1     -19.346 -24.285  14.471  1.00  0.00     0.211 HD
ENDBRANCH  22  30
ENDBRANCH   1  17
TORSDOF 10
ENDMDL
MODEL 8
REMARK VINA RESULT:    -4.950      1.592      2.992
REMARK INTER + INTRA:          -8.106
REMARK INTER:                  -7.316
REMARK INTRA:                  -0.791
REMARK UNBOUND:                -0.986
REMARK SMILES O=C([O-])C1=CO[C@@H](O[C@@H]2O[C@H](CO)[C@@H](O)[C@H](O)[C@H]2O)[C@@H]2[C@@H](CO)CC[C@H]12
REMARK SMILES IDX 8 1 7 2 24 3 25 4 21 5 26 6 20 7 4 8 5 9 6 10 22 11 23 12
REMARK SMILES IDX 2 14 1 15 3 16 9 17 18 18 10 19 16 20 11 21 14 22 19 23
REMARK SMILES IDX 17 25 12 27 13 28 15 30
REMARK H PARENT 23 13 19 24 17 26 13 29 15 31
ROOT
ATOM      1  O   UNL     1     -15.331 -20.763  16.983  1.00  0.00    -0.310 OA
ENDROOT
BRANCH   1   2
ATOM      2  C   UNL     1     -15.478 -19.340  17.106  1.00  0.00     0.313 C 
ATOM      3  C   UNL     1     -18.208 -17.666  19.146  1.00  0.00     0.007 C 
ATOM      4  C   UNL     1     -17.658 -18.699  20.128  1.00  0.00     0.009 C 
ATOM      5  C   UNL     1     -17.164 -17.594  18.037  1.00  0.00     0.024 C 
ATOM      6  C   UNL     1     -16.636 -19.555  19.350  1.00  0.00     0.034 C 
ATOM      7  C   UNL     1     -16.766 -19.073  17.888  1.00  0.00     0.071 C 
ATOM      8  C   UNL     1     -15.228 -19.383  19.858  1.00  0.00     0.013 C 
ATOM      9  C   UNL     1     -14.229 -18.970  19.067  1.00  0.00     0.196 C 
ATOM     10  O   UNL     1     -14.331 -18.732  17.720  1.00  0.00    -0.472 OA
BRANCH   5  11
ATOM     11  C   UNL     1     -17.713 -16.955  16.769  1.00  0.00     0.160 C 
BRANCH  11  12
ATOM     12  O   UNL     1     -19.126 -17.097  16.697  1.00  0.00    -0.396 OA
ATOM     13  H   UNL     1     -19.401 -16.796  15.812  1.00  0.00     0.210 HD
ENDBRANCH  11  12
ENDBRANCH   5  11
BRANCH   8  14
ATOM     14  C   UNL     1     -14.927 -19.699  21.337  1.00  0.00     0.071 C 
ATOM     15  O   UNL     1     -15.443 -20.761  21.788  1.00  0.00    -0.545 OA
ATOM     16  O   UNL     1     -14.200 -18.846  21.921  1.00  0.00    -0.545 OA
ENDBRANCH   8  14
ENDBRANCH   1   2
BRANCH   1  17
ATOM     17  C   UNL     1     -15.023 -21.165  15.653  1.00  0.00     0.286 C 
ATOM     18  C   UNL     1     -16.298 -20.918  14.827  1.00  0.00     0.202 C 
ATOM     19  O   UNL     1     -13.936 -20.380  15.153  1.00  0.00    -0.341 OA
ATOM     20  C   UNL     1     -16.020 -21.213  13.357  1.00  0.00     0.179 C 
ATOM     21  C   UNL     1     -13.611 -20.702  13.789  1.00  0.00     0.178 C 
ATOM     22  C   UNL     1     -14.805 -20.424  12.868  1.00  0.00     0.177 C 
BRANCH  18  23
ATOM     23  O   UNL     1     -17.389 -21.750  15.247  1.00  0.00    -0.385 OA
ATOM     24  H   UNL     1     -17.351 -21.779  16.229  1.00  0.00     0.211 HD
ENDBRANCH  18  23
BRANCH  20  25
ATOM     25  O   UNL     1     -17.159 -20.868  12.550  1.00  0.00    -0.387 OA
ATOM     26  H   UNL     1     -17.651 -21.713  12.455  1.00  0.00     0.211 HD
ENDBRANCH  20  25
BRANCH  21  27
ATOM     27  C   UNL     1     -12.397 -19.854  13.396  1.00  0.00     0.191 C 
BRANCH  27  28
ATOM     28  O   UNL     1     -12.344 -18.679  14.208  1.00  0.00    -0.394 OA
ATOM     29  H   UNL     1     -12.285 -19.001  15.130  1.00  0.00     0.210 HD
ENDBRANCH  27  28
ENDBRANCH  21  27
BRANCH  22  30
ATOM     30  O   UNL     1     -14.521 -20.791  11.515  1.00  0.00    -0.387 OA
ATOM     31  H   UNL     1     -14.349 -19.942  11.057  1.00  0.00     0.211 HD
ENDBRANCH  22  30
ENDBRANCH   1  17
TORSDOF 10
ENDMDL
MODEL 9
REMARK VINA RESULT:    -4.907      2.422      7.304
REMARK INTER + INTRA:          -8.045
REMARK INTER:                  -7.062
REMARK INTRA:                  -0.983
REMARK UNBOUND:                -0.986
REMARK SMILES O=C([O-])C1=CO[C@@H](O[C@@H]2O[C@H](CO)[C@@H](O)[C@H](O)[C@H]2O)[C@@H]2[C@@H](CO)CC[C@H]12
REMARK SMILES IDX 8 1 7 2 24 3 25 4 21 5 26 6 20 7 4 8 5 9 6 10 22 11 23 12
REMARK SMILES IDX 2 14 1 15 3 16 9 17 18 18 10 19 16 20 11 21 14 22 19 23
REMARK SMILES IDX 17 25 12 27 13 28 15 30
REMARK H PARENT 23 13 19 24 17 26 13 29 15 31
ROOT
ATOM      1  O   UNL     1     -14.657 -19.793  19.800  1.00  0.00    -0.310 OA
ENDROOT
BRANCH   1   2
ATOM      2  C   UNL     1     -16.032 -19.399  19.675  1.00  0.00     0.313 C 
ATOM      3  C   UNL     1     -17.322 -17.052  16.983  1.00  0.00     0.007 C 
ATOM      4  C   UNL     1     -16.495 -18.049  16.174  1.00  0.00     0.009 C 
ATOM      5  C   UNL     1     -17.499 -17.715  18.345  1.00  0.00     0.024 C 
ATOM      6  C   UNL     1     -15.786 -18.971  17.189  1.00  0.00     0.034 C 
ATOM      7  C   UNL     1     -16.115 -18.349  18.565  1.00  0.00     0.071 C 
ATOM      8  C   UNL     1     -16.261 -20.398  17.108  1.00  0.00     0.013 C 
ATOM      9  C   UNL     1     -16.789 -21.036  18.161  1.00  0.00     0.196 C 
ATOM     10  O   UNL     1     -16.893 -20.522  19.429  1.00  0.00    -0.472 OA
BRANCH   5  11
ATOM     11  C   UNL     1     -17.918 -16.721  19.419  1.00  0.00     0.160 C 
BRANCH  11  12
ATOM     12  O   UNL     1     -18.669 -15.651  18.859  1.00  0.00    -0.396 OA
ATOM     13  H   UNL     1     -18.047 -14.919  18.692  1.00  0.00     0.210 HD
ENDBRANCH  11  12
ENDBRANCH   5  11
BRANCH   8  14
ATOM     14  C   UNL     1     -16.128 -21.151  15.769  1.00  0.00     0.071 C 
ATOM     15  O   UNL     1     -17.207 -21.359  15.146  1.00  0.00    -0.545 OA
ATOM     16  O   UNL     1     -14.945 -21.473  15.461  1.00  0.00    -0.545 OA
ENDBRANCH   8  14
ENDBRANCH   1   2
BRANCH   1  17
ATOM     17  C   UNL     1     -13.868 -18.810  20.459  1.00  0.00     0.286 C 
ATOM     18  C   UNL     1     -13.363 -19.468  21.756  1.00  0.00     0.202 C 
ATOM     19  O   UNL     1     -12.770 -18.434  19.623  1.00  0.00    -0.341 OA
ATOM     20  C   UNL     1     -12.408 -18.521  22.473  1.00  0.00     0.179 C 
ATOM     21  C   UNL     1     -11.900 -17.479  20.259  1.00  0.00     0.178 C 
ATOM     22  C   UNL     1     -11.289 -18.069  21.535  1.00  0.00     0.177 C 
BRANCH  18  23
ATOM     23  O   UNL     1     -14.434 -19.786  22.658  1.00  0.00    -0.385 OA
ATOM     24  H   UNL     1     -14.184 -20.631  23.095  1.00  0.00     0.211 HD
ENDBRANCH  18  23
BRANCH  20  25
ATOM     25  O   UNL     1     -11.828 -19.165  23.621  1.00  0.00    -0.387 OA
ATOM     26  H   UNL     1     -11.463 -20.004  23.266  1.00  0.00     0.211 HD
ENDBRANCH  20  25
BRANCH  21  27
ATOM     27  C   UNL     1     -10.815 -17.104  19.244  1.00  0.00     0.191 C 
BRANCH  27  28
ATOM     28  O   UNL     1     -10.421 -15.743  19.438  1.00  0.00    -0.394 OA
ATOM     29  H   UNL     1      -9.769 -15.557  18.733  1.00  0.00     0.210 HD
ENDBRANCH  27  28
ENDBRANCH  21  27
BRANCH  22  30
ATOM     30  O   UNL     1     -10.465 -17.116  22.212  1.00  0.00    -0.387 OA
ATOM     31  H   UNL     1     -10.377 -16.370  21.581  1.00  0.00     0.211 HD
ENDBRANCH  22  30
ENDBRANCH   1  17
TORSDOF 10
ENDMDL
