MODEL 1
REMARK VINA RESULT:    -7.663      0.000      0.000
REMARK INTER + INTRA:          -8.936
REMARK INTER:                  -8.783
REMARK INTRA:                  -0.153
REMARK UNBOUND:                -0.153
REMARK SMILES O=C([O-])/C=C/c1ccc(O)cc1
REMARK SMILES IDX 7 1 8 2 9 3 11 4 12 5 6 6 5 7 4 8 2 9 1 10 3 11 10 12
REMARK H PARENT 10 13
ROOT
ATOM      1  C   UNL     1     -19.802 -13.112  14.739  1.00  0.00     0.012 A 
ATOM      2  C   UNL     1     -20.285 -11.830  14.464  1.00  0.00     0.047 A 
ATOM      3  C   UNL     1     -20.490 -10.934  15.506  1.00  0.00     0.115 A 
ATOM      4  C   UNL     1     -20.224 -11.300  16.821  1.00  0.00     0.047 A 
ATOM      5  C   UNL     1     -19.740 -12.585  17.091  1.00  0.00     0.012 A 
ATOM      6  C   UNL     1     -19.512 -13.500  16.053  1.00  0.00    -0.025 A 
ENDROOT
BRANCH   6   7
ATOM      7  C   UNL     1     -19.031 -14.845  16.395  1.00  0.00     0.010 C 
ATOM      8  C   UNL     1     -18.644 -15.239  17.619  1.00  0.00     0.025 C 
BRANCH   8   9
ATOM      9  C   UNL     1     -18.164 -16.663  17.906  1.00  0.00     0.064 C 
ATOM     10  O   UNL     1     -18.214 -17.427  16.901  1.00  0.00    -0.545 OA
ATOM     11  O   UNL     1     -17.783 -16.903  19.084  1.00  0.00    -0.545 OA
ENDBRANCH   8   9
ENDBRANCH   6   7
BRANCH   3  12
ATOM     12  O   UNL     1     -20.963  -9.692  15.199  1.00  0.00    -0.508 OA
ATOM     13  H   UNL     1     -21.449  -9.359  15.971  1.00  0.00     0.293 HD
ENDBRANCH   3  12
TORSDOF 3
ENDMDL
MODEL 2
REMARK VINA RESULT:    -7.644      0.102      1.397
REMARK INTER + INTRA:          -8.913
REMARK INTER:                  -8.772
REMARK INTRA:                  -0.142
REMARK UNBOUND:                -0.153
REMARK SMILES O=C([O-])/C=C/c1ccc(O)cc1
REMARK SMILES IDX 7 1 8 2 9 3 11 4 12 5 6 6 5 7 4 8 2 9 1 10 3 11 10 12
REMARK H PARENT 10 13
ROOT
ATOM      1  C   UNL     1     -19.759 -12.588  17.089  1.00  0.00     0.012 A 
ATOM      2  C   UNL     1     -20.235 -11.315  16.764  1.00  0.00     0.047 A 
ATOM      3  C   UNL     1     -20.501 -10.998  15.438  1.00  0.00     0.115 A 
ATOM      4  C   UNL     1     -20.294 -11.933  14.429  1.00  0.00     0.047 A 
ATOM      5  C   UNL     1     -19.817 -13.205  14.759  1.00  0.00     0.012 A 
ATOM      6  C   UNL     1     -19.557 -13.551  16.093  1.00  0.00    -0.025 A 
ENDROOT
BRANCH   6   7
ATOM      7  C   UNL     1     -19.029 -14.892  16.381  1.00  0.00     0.010 C 
ATOM      8  C   UNL     1     -18.652 -15.328  17.593  1.00  0.00     0.025 C 
BRANCH   8   9
ATOM      9  C   UNL     1     -18.121 -16.745  17.823  1.00  0.00     0.064 C 
ATOM     10  O   UNL     1     -18.232 -17.498  16.814  1.00  0.00    -0.545 OA
ATOM     11  O   UNL     1     -17.645 -16.990  18.965  1.00  0.00    -0.545 OA
ENDBRANCH   8   9
ENDBRANCH   6   7
BRANCH   3  12
ATOM     12  O   UNL     1     -20.964  -9.746  15.159  1.00  0.00    -0.508 OA
ATOM     13  H   UNL     1     -21.927  -9.749  15.284  1.00  0.00     0.293 HD
ENDBRANCH   3  12
TORSDOF 3
ENDMDL
MODEL 3
REMARK VINA RESULT:    -6.939      1.048      1.153
REMARK INTER + INTRA:          -8.106
REMARK INTER:                  -7.959
REMARK INTRA:                  -0.147
REMARK UNBOUND:                -0.153
REMARK SMILES O=C([O-])/C=C/c1ccc(O)cc1
REMARK SMILES IDX 7 1 8 2 9 3 11 4 12 5 6 6 5 7 4 8 2 9 1 10 3 11 10 12
REMARK H PARENT 10 13
ROOT
ATOM      1  C   UNL     1     -19.797 -14.137  15.325  1.00  0.00     0.012 A 
ATOM      2  C   UNL     1     -20.239 -12.904  14.838  1.00  0.00     0.047 A 
ATOM      3  C   UNL     1     -20.150 -11.774  15.641  1.00  0.00     0.115 A 
ATOM      4  C   UNL     1     -19.629 -11.857  16.929  1.00  0.00     0.047 A 
ATOM      5  C   UNL     1     -19.187 -13.093  17.411  1.00  0.00     0.012 A 
ATOM      6  C   UNL     1     -19.254 -14.243  16.612  1.00  0.00    -0.025 A 
ENDROOT
BRANCH   6   7
ATOM      7  C   UNL     1     -18.804 -15.522  17.179  1.00  0.00     0.010 C 
ATOM      8  C   UNL     1     -18.737 -15.803  18.490  1.00  0.00     0.025 C 
BRANCH   8   9
ATOM      9  C   UNL     1     -18.269 -17.164  19.011  1.00  0.00     0.064 C 
ATOM     10  O   UNL     1     -19.087 -18.101  18.789  1.00  0.00    -0.545 OA
ATOM     11  O   UNL     1     -17.146 -17.192  19.587  1.00  0.00    -0.545 OA
ENDBRANCH   8   9
ENDBRANCH   6   7
BRANCH   3  12
ATOM     12  O   UNL     1     -20.592 -10.589  15.132  1.00  0.00    -0.508 OA
ATOM     13  H   UNL     1     -20.014 -10.350  14.388  1.00  0.00     0.293 HD
ENDBRANCH   3  12
TORSDOF 3
ENDMDL
MODEL 4
REMARK VINA RESULT:    -6.401      1.888      6.179
REMARK INTER + INTRA:          -7.489
REMARK INTER:                  -7.350
REMARK INTRA:                  -0.139
REMARK UNBOUND:                -0.153
REMARK SMILES O=C([O-])/C=C/c1ccc(O)cc1
REMARK SMILES IDX 7 1 8 2 9 3 11 4 12 5 6 6 5 7 4 8 2 9 1 10 3 11 10 12
REMARK H PARENT 10 13
ROOT
ATOM      1  C   UNL     1     -17.550 -16.469  16.776  1.00  0.00     0.012 A 
ATOM      2  C   UNL     1     -16.829 -17.625  17.084  1.00  0.00     0.047 A 
ATOM      3  C   UNL     1     -16.834 -18.114  18.384  1.00  0.00     0.115 A 
ATOM      4  C   UNL     1     -17.546 -17.462  19.385  1.00  0.00     0.047 A 
ATOM      5  C   UNL     1     -18.266 -16.304  19.072  1.00  0.00     0.012 A 
ATOM      6  C   UNL     1     -18.287 -15.802  17.763  1.00  0.00    -0.025 A 
ENDROOT
BRANCH   6   7
ATOM      7  C   UNL     1     -19.035 -14.567  17.496  1.00  0.00     0.010 C 
ATOM      8  C   UNL     1     -19.065 -13.922  16.319  1.00  0.00     0.025 C 
BRANCH   8   9
ATOM      9  C   UNL     1     -19.877 -12.643  16.107  1.00  0.00     0.064 C 
ATOM     10  O   UNL     1     -19.840 -11.850  17.091  1.00  0.00    -0.545 OA
ATOM     11  O   UNL     1     -20.476 -12.531  15.002  1.00  0.00    -0.545 OA
ENDBRANCH   8   9
ENDBRANCH   6   7
BRANCH   3  12
ATOM     12  O   UNL     1     -16.119 -19.245  18.647  1.00  0.00    -0.508 OA
ATOM     13  H   UNL     1     -15.246 -18.976  18.976  1.00  0.00     0.293 HD
ENDBRANCH   3  12
TORSDOF 3
ENDMDL
MODEL 5
REMARK VINA RESULT:    -6.313      2.502      3.571
REMARK INTER + INTRA:          -7.388
REMARK INTER:                  -7.248
REMARK INTRA:                  -0.140
REMARK UNBOUND:                -0.153
REMARK SMILES O=C([O-])/C=C/c1ccc(O)cc1
REMARK SMILES IDX 7 1 8 2 9 3 11 4 12 5 6 6 5 7 4 8 2 9 1 10 3 11 10 12
REMARK H PARENT 10 13
ROOT
ATOM      1  C   UNL     1     -18.622 -14.444  17.915  1.00  0.00     0.012 A 
ATOM      2  C   UNL     1     -19.093 -13.699  16.831  1.00  0.00     0.047 A 
ATOM      3  C   UNL     1     -19.661 -14.351  15.743  1.00  0.00     0.115 A 
ATOM      4  C   UNL     1     -19.763 -15.738  15.719  1.00  0.00     0.047 A 
ATOM      5  C   UNL     1     -19.290 -16.479  16.807  1.00  0.00     0.012 A 
ATOM      6  C   UNL     1     -18.726 -15.841  17.921  1.00  0.00    -0.025 A 
ENDROOT
BRANCH   6   7
ATOM      7  C   UNL     1     -18.219 -16.670  19.023  1.00  0.00     0.010 C 
ATOM      8  C   UNL     1     -17.372 -17.702  18.886  1.00  0.00     0.025 C 
BRANCH   8   9
ATOM      9  C   UNL     1     -16.874 -18.516  20.083  1.00  0.00     0.064 C 
ATOM     10  O   UNL     1     -17.626 -19.485  20.385  1.00  0.00    -0.545 OA
ATOM     11  O   UNL     1     -15.796 -18.133  20.615  1.00  0.00    -0.545 OA
ENDBRANCH   8   9
ENDBRANCH   6   7
BRANCH   3  12
ATOM     12  O   UNL     1     -20.109 -13.590  14.703  1.00  0.00    -0.508 OA
ATOM     13  H   UNL     1     -19.372 -13.038  14.398  1.00  0.00     0.293 HD
ENDBRANCH   3  12
TORSDOF 3
ENDMDL
MODEL 6
REMARK VINA RESULT:    -6.276      2.502      3.389
REMARK INTER + INTRA:          -7.346
REMARK INTER:                  -7.216
REMARK INTRA:                  -0.130
REMARK UNBOUND:                -0.153
REMARK SMILES O=C([O-])/C=C/c1ccc(O)cc1
REMARK SMILES IDX 7 1 8 2 9 3 11 4 12 5 6 6 5 7 4 8 2 9 1 10 3 11 10 12
REMARK H PARENT 10 13
ROOT
ATOM      1  C   UNL     1     -19.359 -16.508  16.692  1.00  0.00     0.012 A 
ATOM      2  C   UNL     1     -19.808 -15.675  15.663  1.00  0.00     0.047 A 
ATOM      3  C   UNL     1     -19.668 -14.298  15.783  1.00  0.00     0.115 A 
ATOM      4  C   UNL     1     -19.090 -13.738  16.918  1.00  0.00     0.047 A 
ATOM      5  C   UNL     1     -18.643 -14.576  17.944  1.00  0.00     0.012 A 
ATOM      6  C   UNL     1     -18.761 -15.969  17.838  1.00  0.00    -0.025 A 
ENDROOT
BRANCH   6   7
ATOM      7  C   UNL     1     -18.302 -16.801  18.958  1.00  0.00     0.010 C 
ATOM      8  C   UNL     1     -17.286 -17.678  18.904  1.00  0.00     0.025 C 
BRANCH   8   9
ATOM      9  C   UNL     1     -16.854 -18.505  20.116  1.00  0.00     0.064 C 
ATOM     10  O   UNL     1     -17.676 -19.411  20.431  1.00  0.00    -0.545 OA
ATOM     11  O   UNL     1     -15.752 -18.194  20.647  1.00  0.00    -0.545 OA
ENDBRANCH   8   9
ENDBRANCH   6   7
BRANCH   3  12
ATOM     12  O   UNL     1     -20.117 -13.517  14.759  1.00  0.00    -0.508 OA
ATOM     13  H   UNL     1     -20.586 -14.090  14.130  1.00  0.00     0.293 HD
ENDBRANCH   3  12
TORSDOF 3
ENDMDL
MODEL 7
REMARK VINA RESULT:    -5.806      3.600      7.249
REMARK INTER + INTRA:          -6.808
REMARK INTER:                  -6.661
REMARK INTRA:                  -0.147
REMARK UNBOUND:                -0.153
REMARK SMILES O=C([O-])/C=C/c1ccc(O)cc1
REMARK SMILES IDX 7 1 8 2 9 3 11 4 12 5 6 6 5 7 4 8 2 9 1 10 3 11 10 12
REMARK H PARENT 10 13
ROOT
ATOM      1  C   UNL     1     -15.579 -18.420  17.700  1.00  0.00     0.012 A 
ATOM      2  C   UNL     1     -14.822 -19.034  18.702  1.00  0.00     0.047 A 
ATOM      3  C   UNL     1     -15.264 -18.995  20.018  1.00  0.00     0.115 A 
ATOM      4  C   UNL     1     -16.450 -18.348  20.351  1.00  0.00     0.047 A 
ATOM      5  C   UNL     1     -17.203 -17.736  19.345  1.00  0.00     0.012 A 
ATOM      6  C   UNL     1     -16.784 -17.776  18.007  1.00  0.00    -0.025 A 
ENDROOT
BRANCH   6   7
ATOM      7  C   UNL     1     -17.598 -17.091  16.994  1.00  0.00     0.010 C 
ATOM      8  C   UNL     1     -18.864 -16.681  17.169  1.00  0.00     0.025 C 
BRANCH   8   9
ATOM      9  C   UNL     1     -19.649 -15.961  16.071  1.00  0.00     0.064 C 
ATOM     10  O   UNL     1     -19.408 -14.723  16.003  1.00  0.00    -0.545 OA
ATOM     11  O   UNL     1     -20.428 -16.671  15.377  1.00  0.00    -0.545 OA
ENDBRANCH   8   9
ENDBRANCH   6   7
BRANCH   3  12
ATOM     12  O   UNL     1     -14.499 -19.604  20.969  1.00  0.00    -0.508 OA
ATOM     13  H   UNL     1     -13.760 -19.011  21.183  1.00  0.00     0.293 HD
ENDBRANCH   3  12
TORSDOF 3
ENDMDL
MODEL 8
REMARK VINA RESULT:    -5.616      2.959      7.245
REMARK INTER + INTRA:          -6.589
REMARK INTER:                  -6.457
REMARK INTRA:                  -0.133
REMARK UNBOUND:                -0.153
REMARK SMILES O=C([O-])/C=C/c1ccc(O)cc1
REMARK SMILES IDX 7 1 8 2 9 3 11 4 12 5 6 6 5 7 4 8 2 9 1 10 3 11 10 12
REMARK H PARENT 10 13
ROOT
ATOM      1  C   UNL     1     -16.876 -17.561  19.785  1.00  0.00     0.012 A 
ATOM      2  C   UNL     1     -16.417 -18.808  20.218  1.00  0.00     0.047 A 
ATOM      3  C   UNL     1     -17.096 -19.960  19.840  1.00  0.00     0.115 A 
ATOM      4  C   UNL     1     -18.231 -19.885  19.039  1.00  0.00     0.047 A 
ATOM      5  C   UNL     1     -18.686 -18.634  18.609  1.00  0.00     0.012 A 
ATOM      6  C   UNL     1     -18.008 -17.460  18.966  1.00  0.00    -0.025 A 
ENDROOT
BRANCH   6   7
ATOM      7  C   UNL     1     -18.545 -16.171  18.512  1.00  0.00     0.010 C 
ATOM      8  C   UNL     1     -18.465 -15.700  17.257  1.00  0.00     0.025 C 
BRANCH   8   9
ATOM      9  C   UNL     1     -19.060 -14.350  16.851  1.00  0.00     0.064 C 
ATOM     10  O   UNL     1     -19.480 -14.319  15.660  1.00  0.00    -0.545 OA
ATOM     11  O   UNL     1     -19.062 -13.447  17.732  1.00  0.00    -0.545 OA
ENDBRANCH   8   9
ENDBRANCH   6   7
BRANCH   3  12
ATOM     12  O   UNL     1     -16.619 -21.159  20.281  1.00  0.00    -0.508 OA
ATOM     13  H   UNL     1     -15.651 -21.100  20.316  1.00  0.00     0.293 HD
ENDBRANCH   3  12
TORSDOF 3
ENDMDL
MODEL 9
REMARK VINA RESULT:    -5.418      3.578      5.089
REMARK INTER + INTRA:          -6.363
REMARK INTER:                  -6.226
REMARK INTRA:                  -0.137
REMARK UNBOUND:                -0.153
REMARK SMILES O=C([O-])/C=C/c1ccc(O)cc1
REMARK SMILES IDX 7 1 8 2 9 3 11 4 12 5 6 6 5 7 4 8 2 9 1 10 3 11 10 12
REMARK H PARENT 10 13
ROOT
ATOM      1  C   UNL     1     -17.708 -17.663  17.408  1.00  0.00     0.012 A 
ATOM      2  C   UNL     1     -18.372 -16.974  16.390  1.00  0.00     0.047 A 
ATOM      3  C   UNL     1     -18.994 -15.764  16.670  1.00  0.00     0.115 A 
ATOM      4  C   UNL     1     -18.967 -15.232  17.956  1.00  0.00     0.047 A 
ATOM      5  C   UNL     1     -18.302 -15.926  18.971  1.00  0.00     0.012 A 
ATOM      6  C   UNL     1     -17.655 -17.141  18.707  1.00  0.00    -0.025 A 
ENDROOT
BRANCH   6   7
ATOM      7  C   UNL     1     -16.995 -17.843  19.816  1.00  0.00     0.010 C 
ATOM      8  C   UNL     1     -16.691 -19.150  19.831  1.00  0.00     0.025 C 
BRANCH   8   9
ATOM      9  C   UNL     1     -15.991 -19.814  21.019  1.00  0.00     0.064 C 
ATOM     10  O   UNL     1     -16.616 -20.809  21.484  1.00  0.00    -0.545 OA
ATOM     11  O   UNL     1     -14.898 -19.303  21.387  1.00  0.00    -0.545 OA
ENDBRANCH   8   9
ENDBRANCH   6   7
BRANCH   3  12
ATOM     12  O   UNL     1     -19.633 -15.120  15.651  1.00  0.00    -0.508 OA
ATOM     13  H   UNL     1     -19.586 -15.687  14.864  1.00  0.00     0.293 HD
ENDBRANCH   3  12
TORSDOF 3
ENDMDL
