MODEL 1
REMARK VINA RESULT:    -7.355      0.000      0.000
REMARK INTER + INTRA:          -8.798
REMARK INTER:                  -8.645
REMARK INTRA:                  -0.153
REMARK UNBOUND:                -0.153
REMARK SMILES O=C([O-])/C=C/c1ccc(O)c(O)c1
REMARK SMILES IDX 7 1 8 2 9 3 11 4 13 5 6 6 5 7 4 8 2 9 1 10 3 11 10 12 12 14
REMARK H PARENT 10 13 12 15
ROOT
ATOM      1  C   UNL     1     -19.469 -12.983  17.271  1.00  0.00     0.012 A 
ATOM      2  C   UNL     1     -19.902 -11.698  16.928  1.00  0.00     0.051 A 
ATOM      3  C   UNL     1     -20.229 -11.429  15.605  1.00  0.00     0.157 A 
ATOM      4  C   UNL     1     -20.122 -12.425  14.637  1.00  0.00     0.157 A 
ATOM      5  C   UNL     1     -19.693 -13.704  14.973  1.00  0.00     0.058 A 
ATOM      6  C   UNL     1     -19.371 -13.999  16.304  1.00  0.00    -0.022 A 
ENDROOT
BRANCH   6   7
ATOM      7  C   UNL     1     -18.882 -15.318  16.730  1.00  0.00     0.010 C 
ATOM      8  C   UNL     1     -18.656 -15.687  18.001  1.00  0.00     0.025 C 
BRANCH   8   9
ATOM      9  C   UNL     1     -18.123 -17.075  18.362  1.00  0.00     0.064 C 
ATOM     10  O   UNL     1     -17.544 -17.183  19.479  1.00  0.00    -0.545 OA
ATOM     11  O   UNL     1     -18.339 -17.950  17.476  1.00  0.00    -0.545 OA
ENDBRANCH   8   9
ENDBRANCH   6   7
BRANCH   3  12
ATOM     12  O   UNL     1     -20.659 -10.192  15.206  1.00  0.00    -0.504 OA
ATOM     13  H   UNL     1     -19.869  -9.650  15.041  1.00  0.00     0.293 HD
ENDBRANCH   3  12
BRANCH   4  14
ATOM     14  O   UNL     1     -20.438 -12.139  13.337  1.00  0.00    -0.504 OA
ATOM     15  H   UNL     1     -21.028 -11.365  13.401  1.00  0.00     0.293 HD
ENDBRANCH   4  14
TORSDOF 4
ENDMDL
MODEL 2
REMARK VINA RESULT:    -6.982      0.812      1.818
REMARK INTER + INTRA:          -8.359
REMARK INTER:                  -8.207
REMARK INTRA:                  -0.152
REMARK UNBOUND:                -0.153
REMARK SMILES O=C([O-])/C=C/c1ccc(O)c(O)c1
REMARK SMILES IDX 7 1 8 2 9 3 11 4 13 5 6 6 5 7 4 8 2 9 1 10 3 11 10 12 12 14
REMARK H PARENT 10 13 12 15
ROOT
ATOM      1  C   UNL     1     -19.426 -13.920  15.303  1.00  0.00     0.012 A 
ATOM      2  C   UNL     1     -19.882 -12.935  14.421  1.00  0.00     0.051 A 
ATOM      3  C   UNL     1     -20.230 -11.689  14.927  1.00  0.00     0.157 A 
ATOM      4  C   UNL     1     -20.129 -11.429  16.291  1.00  0.00     0.157 A 
ATOM      5  C   UNL     1     -19.676 -12.405  17.172  1.00  0.00     0.058 A 
ATOM      6  C   UNL     1     -19.307 -13.665  16.681  1.00  0.00    -0.022 A 
ENDROOT
BRANCH   6   7
ATOM      7  C   UNL     1     -18.848 -14.754  17.553  1.00  0.00     0.010 C 
ATOM      8  C   UNL     1     -18.704 -16.036  17.180  1.00  0.00     0.025 C 
BRANCH   8   9
ATOM      9  C   UNL     1     -18.242 -17.120  18.156  1.00  0.00     0.064 C 
ATOM     10  O   UNL     1     -17.854 -16.728  19.291  1.00  0.00    -0.545 OA
ATOM     11  O   UNL     1     -18.315 -18.291  17.687  1.00  0.00    -0.545 OA
ENDBRANCH   8   9
ENDBRANCH   6   7
BRANCH   3  12
ATOM     12  O   UNL     1     -20.683 -10.683  14.115  1.00  0.00    -0.504 OA
ATOM     13  H   UNL     1     -21.652 -10.666  14.189  1.00  0.00     0.293 HD
ENDBRANCH   3  12
BRANCH   4  14
ATOM     14  O   UNL     1     -20.487 -10.200  16.773  1.00  0.00    -0.504 OA
ATOM     15  H   UNL     1     -20.569  -9.647  15.973  1.00  0.00     0.293 HD
ENDBRANCH   4  14
TORSDOF 4
ENDMDL
MODEL 3
REMARK VINA RESULT:    -6.633      1.044      5.938
REMARK INTER + INTRA:          -7.949
REMARK INTER:                  -7.804
REMARK INTRA:                  -0.145
REMARK UNBOUND:                -0.153
REMARK SMILES O=C([O-])/C=C/c1ccc(O)c(O)c1
REMARK SMILES IDX 7 1 8 2 9 3 11 4 13 5 6 6 5 7 4 8 2 9 1 10 3 11 10 12 12 14
REMARK H PARENT 10 13 12 15
ROOT
ATOM      1  C   UNL     1     -18.891 -15.052  18.140  1.00  0.00     0.012 A 
ATOM      2  C   UNL     1     -18.290 -15.877  19.096  1.00  0.00     0.051 A 
ATOM      3  C   UNL     1     -17.840 -17.134  18.713  1.00  0.00     0.157 A 
ATOM      4  C   UNL     1     -17.991 -17.565  17.397  1.00  0.00     0.157 A 
ATOM      5  C   UNL     1     -18.587 -16.748  16.443  1.00  0.00     0.058 A 
ATOM      6  C   UNL     1     -19.036 -15.471  16.806  1.00  0.00    -0.022 A 
ENDROOT
BRANCH   6   7
ATOM      7  C   UNL     1     -19.702 -14.564  15.861  1.00  0.00     0.010 C 
ATOM      8  C   UNL     1     -19.709 -13.225  15.948  1.00  0.00     0.025 C 
BRANCH   8   9
ATOM      9  C   UNL     1     -20.448 -12.348  14.935  1.00  0.00     0.064 C 
ATOM     10  O   UNL     1     -20.177 -12.543  13.717  1.00  0.00    -0.545 OA
ATOM     11  O   UNL     1     -21.253 -11.528  15.462  1.00  0.00    -0.545 OA
ENDBRANCH   8   9
ENDBRANCH   6   7
BRANCH   3  12
ATOM     12  O   UNL     1     -17.244 -17.988  19.601  1.00  0.00    -0.504 OA
ATOM     13  H   UNL     1     -17.849 -18.737  19.734  1.00  0.00     0.293 HD
ENDBRANCH   3  12
BRANCH   4  14
ATOM     14  O   UNL     1     -17.553 -18.810  17.040  1.00  0.00    -0.504 OA
ATOM     15  H   UNL     1     -17.959 -19.403  17.700  1.00  0.00     0.293 HD
ENDBRANCH   4  14
TORSDOF 4
ENDMDL
MODEL 4
REMARK VINA RESULT:    -6.431      1.316      5.916
REMARK INTER + INTRA:          -7.711
REMARK INTER:                  -7.592
REMARK INTRA:                  -0.119
REMARK UNBOUND:                -0.153
REMARK SMILES O=C([O-])/C=C/c1ccc(O)c(O)c1
REMARK SMILES IDX 7 1 8 2 9 3 11 4 13 5 6 6 5 7 4 8 2 9 1 10 3 11 10 12 12 14
REMARK H PARENT 10 13 12 15
ROOT
ATOM      1  C   UNL     1     -19.775 -15.139  15.639  1.00  0.00     0.012 A 
ATOM      2  C   UNL     1     -19.594 -16.466  16.042  1.00  0.00     0.051 A 
ATOM      3  C   UNL     1     -19.048 -16.720  17.293  1.00  0.00     0.157 A 
ATOM      4  C   UNL     1     -18.682 -15.668  18.130  1.00  0.00     0.157 A 
ATOM      5  C   UNL     1     -18.860 -14.348  17.734  1.00  0.00     0.058 A 
ATOM      6  C   UNL     1     -19.422 -14.069  16.481  1.00  0.00    -0.022 A 
ENDROOT
BRANCH   6   7
ATOM      7  C   UNL     1     -19.613 -12.700  15.982  1.00  0.00     0.010 C 
ATOM      8  C   UNL     1     -20.204 -11.704  16.661  1.00  0.00     0.025 C 
BRANCH   8   9
ATOM      9  C   UNL     1     -20.387 -10.308  16.061  1.00  0.00     0.064 C 
ATOM     10  O   UNL     1     -19.547  -9.432  16.407  1.00  0.00    -0.545 OA
ATOM     11  O   UNL     1     -21.376 -10.216  15.280  1.00  0.00    -0.545 OA
ENDBRANCH   8   9
ENDBRANCH   6   7
BRANCH   3  12
ATOM     12  O   UNL     1     -18.846 -17.997  17.746  1.00  0.00    -0.504 OA
ATOM     13  H   UNL     1     -19.721 -18.388  17.910  1.00  0.00     0.293 HD
ENDBRANCH   3  12
BRANCH   4  14
ATOM     14  O   UNL     1     -18.135 -15.938  19.354  1.00  0.00    -0.504 OA
ATOM     15  H   UNL     1     -17.540 -16.693  19.187  1.00  0.00     0.293 HD
ENDBRANCH   4  14
TORSDOF 4
ENDMDL
MODEL 5
REMARK VINA RESULT:    -6.333      1.518      5.659
REMARK INTER + INTRA:          -7.596
REMARK INTER:                  -7.466
REMARK INTRA:                  -0.129
REMARK UNBOUND:                -0.153
REMARK SMILES O=C([O-])/C=C/c1ccc(O)c(O)c1
REMARK SMILES IDX 7 1 8 2 9 3 11 4 13 5 6 6 5 7 4 8 2 9 1 10 3 11 10 12 12 14
REMARK H PARENT 10 13 12 15
ROOT
ATOM      1  C   UNL     1     -18.692 -14.062  17.617  1.00  0.00     0.012 A 
ATOM      2  C   UNL     1     -18.593 -15.395  18.027  1.00  0.00     0.051 A 
ATOM      3  C   UNL     1     -19.138 -16.388  17.224  1.00  0.00     0.157 A 
ATOM      4  C   UNL     1     -19.777 -16.059  16.031  1.00  0.00     0.157 A 
ATOM      5  C   UNL     1     -19.877 -14.735  15.619  1.00  0.00     0.058 A 
ATOM      6  C   UNL     1     -19.323 -13.718  16.407  1.00  0.00    -0.022 A 
ENDROOT
BRANCH   6   7
ATOM      7  C   UNL     1     -19.417 -12.296  16.052  1.00  0.00     0.010 C 
ATOM      8  C   UNL     1     -20.380 -11.456  16.463  1.00  0.00     0.025 C 
BRANCH   8   9
ATOM      9  C   UNL     1     -20.422  -9.990  16.028  1.00  0.00     0.064 C 
ATOM     10  O   UNL     1     -21.414  -9.637  15.331  1.00  0.00    -0.545 OA
ATOM     11  O   UNL     1     -19.438  -9.310  16.436  1.00  0.00    -0.545 OA
ENDBRANCH   8   9
ENDBRANCH   6   7
BRANCH   3  12
ATOM     12  O   UNL     1     -19.073 -17.711  17.571  1.00  0.00    -0.504 OA
ATOM     13  H   UNL     1     -18.184 -18.029  17.336  1.00  0.00     0.293 HD
ENDBRANCH   3  12
BRANCH   4  14
ATOM     14  O   UNL     1     -20.317 -17.049  15.259  1.00  0.00    -0.504 OA
ATOM     15  H   UNL     1     -21.266 -17.033  15.482  1.00  0.00     0.293 HD
ENDBRANCH   4  14
TORSDOF 4
ENDMDL
MODEL 6
REMARK VINA RESULT:    -6.320      2.168      3.299
REMARK INTER + INTRA:          -7.581
REMARK INTER:                  -7.452
REMARK INTRA:                  -0.129
REMARK UNBOUND:                -0.153
REMARK SMILES O=C([O-])/C=C/c1ccc(O)c(O)c1
REMARK SMILES IDX 7 1 8 2 9 3 11 4 13 5 6 6 5 7 4 8 2 9 1 10 3 11 10 12 12 14
REMARK H PARENT 10 13 12 15
ROOT
ATOM      1  C   UNL     1     -19.226 -16.677  16.827  1.00  0.00     0.012 A 
ATOM      2  C   UNL     1     -19.717 -15.913  15.764  1.00  0.00     0.051 A 
ATOM      3  C   UNL     1     -19.668 -14.528  15.852  1.00  0.00     0.157 A 
ATOM      4  C   UNL     1     -19.143 -13.912  16.986  1.00  0.00     0.157 A 
ATOM      5  C   UNL     1     -18.654 -14.668  18.046  1.00  0.00     0.058 A 
ATOM      6  C   UNL     1     -18.681 -16.067  17.971  1.00  0.00    -0.022 A 
ENDROOT
BRANCH   6   7
ATOM      7  C   UNL     1     -18.210 -16.930  19.062  1.00  0.00     0.010 C 
ATOM      8  C   UNL     1     -17.114 -17.705  19.019  1.00  0.00     0.025 C 
BRANCH   8   9
ATOM      9  C   UNL     1     -16.702 -18.597  20.192  1.00  0.00     0.064 C 
ATOM     10  O   UNL     1     -15.634 -18.286  20.789  1.00  0.00    -0.545 OA
ATOM     11  O   UNL     1     -17.505 -19.548  20.414  1.00  0.00    -0.545 OA
ENDBRANCH   8   9
ENDBRANCH   6   7
BRANCH   3  12
ATOM     12  O   UNL     1     -20.132 -13.725  14.845  1.00  0.00    -0.504 OA
ATOM     13  H   UNL     1     -21.104 -13.755  14.875  1.00  0.00     0.293 HD
ENDBRANCH   3  12
BRANCH   4  14
ATOM     14  O   UNL     1     -19.114 -12.547  17.061  1.00  0.00    -0.504 OA
ATOM     15  H   UNL     1     -20.048 -12.284  16.962  1.00  0.00     0.293 HD
ENDBRANCH   4  14
TORSDOF 4
ENDMDL
MODEL 7
REMARK VINA RESULT:    -6.165      2.112      6.490
REMARK INTER + INTRA:          -7.399
REMARK INTER:                  -7.263
REMARK INTRA:                  -0.136
REMARK UNBOUND:                -0.153
REMARK SMILES O=C([O-])/C=C/c1ccc(O)c(O)c1
REMARK SMILES IDX 7 1 8 2 9 3 11 4 13 5 6 6 5 7 4 8 2 9 1 10 3 11 10 12 12 14
REMARK H PARENT 10 13 12 15
ROOT
ATOM      1  C   UNL     1     -18.009 -16.789  18.981  1.00  0.00     0.012 A 
ATOM      2  C   UNL     1     -17.283 -17.754  19.687  1.00  0.00     0.051 A 
ATOM      3  C   UNL     1     -16.322 -18.498  19.014  1.00  0.00     0.157 A 
ATOM      4  C   UNL     1     -16.091 -18.288  17.657  1.00  0.00     0.157 A 
ATOM      5  C   UNL     1     -16.810 -17.329  16.952  1.00  0.00     0.058 A 
ATOM      6  C   UNL     1     -17.774 -16.559  17.614  1.00  0.00    -0.022 A 
ENDROOT
BRANCH   6   7
ATOM      7  C   UNL     1     -18.593 -15.549  16.929  1.00  0.00     0.010 C 
ATOM      8  C   UNL     1     -18.689 -14.259  17.285  1.00  0.00     0.025 C 
BRANCH   8   9
ATOM      9  C   UNL     1     -19.585 -13.272  16.533  1.00  0.00     0.064 C 
ATOM     10  O   UNL     1     -19.864 -12.196  17.131  1.00  0.00    -0.545 OA
ATOM     11  O   UNL     1     -19.932 -13.672  15.386  1.00  0.00    -0.545 OA
ENDBRANCH   8   9
ENDBRANCH   6   7
BRANCH   3  12
ATOM     12  O   UNL     1     -15.579 -19.457  19.649  1.00  0.00    -0.504 OA
ATOM     13  H   UNL     1     -14.847 -19.697  19.055  1.00  0.00     0.293 HD
ENDBRANCH   3  12
BRANCH   4  14
ATOM     14  O   UNL     1     -15.149 -19.038  17.009  1.00  0.00    -0.504 OA
ATOM     15  H   UNL     1     -15.395 -18.966  16.067  1.00  0.00     0.293 HD
ENDBRANCH   4  14
TORSDOF 4
ENDMDL
MODEL 8
REMARK VINA RESULT:    -6.161      2.485      3.684
REMARK INTER + INTRA:          -7.394
REMARK INTER:                  -7.269
REMARK INTRA:                  -0.124
REMARK UNBOUND:                -0.153
REMARK SMILES O=C([O-])/C=C/c1ccc(O)c(O)c1
REMARK SMILES IDX 7 1 8 2 9 3 11 4 13 5 6 6 5 7 4 8 2 9 1 10 3 11 10 12 12 14
REMARK H PARENT 10 13 12 15
ROOT
ATOM      1  C   UNL     1     -18.284 -15.038  18.226  1.00  0.00     0.012 A 
ATOM      2  C   UNL     1     -18.807 -14.258  17.189  1.00  0.00     0.051 A 
ATOM      3  C   UNL     1     -19.512 -14.881  16.168  1.00  0.00     0.157 A 
ATOM      4  C   UNL     1     -19.691 -16.262  16.177  1.00  0.00     0.157 A 
ATOM      5  C   UNL     1     -19.175 -17.042  17.206  1.00  0.00     0.058 A 
ATOM      6  C   UNL     1     -18.471 -16.431  18.252  1.00  0.00    -0.022 A 
ENDROOT
BRANCH   6   7
ATOM      7  C   UNL     1     -17.871 -17.192  19.357  1.00  0.00     0.010 C 
ATOM      8  C   UNL     1     -16.827 -18.029  19.243  1.00  0.00     0.025 C 
BRANCH   8   9
ATOM      9  C   UNL     1     -16.274 -18.806  20.439  1.00  0.00     0.064 C 
ATOM     10  O   UNL     1     -16.955 -19.792  20.835  1.00  0.00    -0.545 OA
ATOM     11  O   UNL     1     -15.181 -18.349  20.881  1.00  0.00    -0.545 OA
ENDBRANCH   8   9
ENDBRANCH   6   7
BRANCH   3  12
ATOM     12  O   UNL     1     -20.048 -14.173  15.126  1.00  0.00    -0.504 OA
ATOM     13  H   UNL     1     -20.374 -13.331  15.485  1.00  0.00     0.293 HD
ENDBRANCH   3  12
BRANCH   4  14
ATOM     14  O   UNL     1     -20.379 -16.860  15.158  1.00  0.00    -0.504 OA
ATOM     15  H   UNL     1     -21.138 -17.286  15.601  1.00  0.00     0.293 HD
ENDBRANCH   4  14
TORSDOF 4
ENDMDL
