MODEL 1
REMARK VINA RESULT:    -7.343      0.000      0.000
REMARK INTER + INTRA:          -8.784
REMARK INTER:                  -8.631
REMARK INTRA:                  -0.153
REMARK UNBOUND:                -0.153
REMARK SMILES O=C([O-])/C=C/c1ccc(O)c(O)c1
REMARK SMILES IDX 7 1 8 2 9 3 11 4 13 5 6 6 5 7 4 8 2 9 1 10 3 11 10 12 12 14
REMARK H PARENT 10 13 12 15
ROOT
ATOM      1  C   UNL     1     -19.440 -13.000  17.275  1.00  0.00     0.012 A 
ATOM      2  C   UNL     1     -19.849 -11.708  16.931  1.00  0.00     0.051 A 
ATOM      3  C   UNL     1     -20.187 -11.439  15.611  1.00  0.00     0.157 A 
ATOM      4  C   UNL     1     -20.113 -12.441  14.647  1.00  0.00     0.157 A 
ATOM      5  C   UNL     1     -19.707 -13.727  14.984  1.00  0.00     0.058 A 
ATOM      6  C   UNL     1     -19.375 -14.023  16.313  1.00  0.00    -0.022 A 
ENDROOT
BRANCH   6   7
ATOM      7  C   UNL     1     -18.910 -15.350  16.739  1.00  0.00     0.010 C 
ATOM      8  C   UNL     1     -18.668 -15.715  18.008  1.00  0.00     0.025 C 
BRANCH   8   9
ATOM      9  C   UNL     1     -18.160 -17.112  18.370  1.00  0.00     0.064 C 
ATOM     10  O   UNL     1     -17.559 -17.224  19.475  1.00  0.00    -0.545 OA
ATOM     11  O   UNL     1     -18.418 -17.989  17.497  1.00  0.00    -0.545 OA
ENDBRANCH   8   9
ENDBRANCH   6   7
BRANCH   3  12
ATOM     12  O   UNL     1     -20.595 -10.195  15.211  1.00  0.00    -0.504 OA
ATOM     13  H   UNL     1     -21.130 -10.310  14.407  1.00  0.00     0.293 HD
ENDBRANCH   3  12
BRANCH   4  14
ATOM     14  O   UNL     1     -20.439 -12.155  13.349  1.00  0.00    -0.504 OA
ATOM     15  H   UNL     1     -19.595 -12.244  12.868  1.00  0.00     0.293 HD
ENDBRANCH   4  14
TORSDOF 4
ENDMDL
MODEL 2
REMARK VINA RESULT:    -6.627      1.037      5.939
REMARK INTER + INTRA:          -7.942
REMARK INTER:                  -7.793
REMARK INTRA:                  -0.148
REMARK UNBOUND:                -0.153
REMARK SMILES O=C([O-])/C=C/c1ccc(O)c(O)c1
REMARK SMILES IDX 7 1 8 2 9 3 11 4 13 5 6 6 5 7 4 8 2 9 1 10 3 11 10 12 12 14
REMARK H PARENT 10 13 12 15
ROOT
ATOM      1  C   UNL     1     -18.870 -15.069  18.146  1.00  0.00     0.012 A 
ATOM      2  C   UNL     1     -18.312 -15.909  19.115  1.00  0.00     0.051 A 
ATOM      3  C   UNL     1     -17.892 -17.179  18.743  1.00  0.00     0.157 A 
ATOM      4  C   UNL     1     -18.029 -17.608  17.425  1.00  0.00     0.157 A 
ATOM      5  C   UNL     1     -18.582 -16.776  16.458  1.00  0.00     0.058 A 
ATOM      6  C   UNL     1     -19.000 -15.486  16.810  1.00  0.00    -0.022 A 
ENDROOT
BRANCH   6   7
ATOM      7  C   UNL     1     -19.621 -14.563  15.850  1.00  0.00     0.010 C 
ATOM      8  C   UNL     1     -19.790 -13.245  16.043  1.00  0.00     0.025 C 
BRANCH   8   9
ATOM      9  C   UNL     1     -20.470 -12.352  15.002  1.00  0.00     0.064 C 
ATOM     10  O   UNL     1     -20.190 -12.583  13.793  1.00  0.00    -0.545 OA
ATOM     11  O   UNL     1     -21.240 -11.484  15.502  1.00  0.00    -0.545 OA
ENDBRANCH   8   9
ENDBRANCH   6   7
BRANCH   3  12
ATOM     12  O   UNL     1     -17.338 -18.048  19.645  1.00  0.00    -0.504 OA
ATOM     13  H   UNL     1     -17.922 -18.823  19.697  1.00  0.00     0.293 HD
ENDBRANCH   3  12
BRANCH   4  14
ATOM     14  O   UNL     1     -17.620 -18.866  17.079  1.00  0.00    -0.504 OA
ATOM     15  H   UNL     1     -16.655 -18.779  16.966  1.00  0.00     0.293 HD
ENDBRANCH   4  14
TORSDOF 4
ENDMDL
MODEL 3
REMARK VINA RESULT:    -6.418      1.338      5.921
REMARK INTER + INTRA:          -7.696
REMARK INTER:                  -7.577
REMARK INTRA:                  -0.119
REMARK UNBOUND:                -0.153
REMARK SMILES O=C([O-])/C=C/c1ccc(O)c(O)c1
REMARK SMILES IDX 7 1 8 2 9 3 11 4 13 5 6 6 5 7 4 8 2 9 1 10 3 11 10 12 12 14
REMARK H PARENT 10 13 12 15
ROOT
ATOM      1  C   UNL     1     -19.761 -15.109  15.653  1.00  0.00     0.012 A 
ATOM      2  C   UNL     1     -19.591 -16.440  16.048  1.00  0.00     0.051 A 
ATOM      3  C   UNL     1     -19.058 -16.707  17.303  1.00  0.00     0.157 A 
ATOM      4  C   UNL     1     -18.695 -15.663  18.150  1.00  0.00     0.157 A 
ATOM      5  C   UNL     1     -18.863 -14.338  17.762  1.00  0.00     0.058 A 
ATOM      6  C   UNL     1     -19.411 -14.047  16.506  1.00  0.00    -0.022 A 
ENDROOT
BRANCH   6   7
ATOM      7  C   UNL     1     -19.590 -12.674  16.015  1.00  0.00     0.010 C 
ATOM      8  C   UNL     1     -20.233 -11.695  16.672  1.00  0.00     0.025 C 
BRANCH   8   9
ATOM      9  C   UNL     1     -20.398 -10.293  16.082  1.00  0.00     0.064 C 
ATOM     10  O   UNL     1     -19.534  -9.436  16.415  1.00  0.00    -0.545 OA
ATOM     11  O   UNL     1     -21.400 -10.177  15.319  1.00  0.00    -0.545 OA
ENDBRANCH   8   9
ENDBRANCH   6   7
BRANCH   3  12
ATOM     12  O   UNL     1     -18.867 -17.988  17.747  1.00  0.00    -0.504 OA
ATOM     13  H   UNL     1     -18.245 -17.946  18.493  1.00  0.00     0.293 HD
ENDBRANCH   3  12
BRANCH   4  14
ATOM     14  O   UNL     1     -18.162 -15.944  19.377  1.00  0.00    -0.504 OA
ATOM     15  H   UNL     1     -18.570 -15.285  19.970  1.00  0.00     0.293 HD
ENDBRANCH   4  14
TORSDOF 4
ENDMDL
MODEL 4
REMARK VINA RESULT:    -6.397      1.298      5.957
REMARK INTER + INTRA:          -7.671
REMARK INTER:                  -7.549
REMARK INTRA:                  -0.122
REMARK UNBOUND:                -0.153
REMARK SMILES O=C([O-])/C=C/c1ccc(O)c(O)c1
REMARK SMILES IDX 7 1 8 2 9 3 11 4 13 5 6 6 5 7 4 8 2 9 1 10 3 11 10 12 12 14
REMARK H PARENT 10 13 12 15
ROOT
ATOM      1  C   UNL     1     -18.644 -15.584  18.628  1.00  0.00     0.012 A 
ATOM      2  C   UNL     1     -18.212 -16.761  19.247  1.00  0.00     0.051 A 
ATOM      3  C   UNL     1     -17.680 -17.777  18.464  1.00  0.00     0.157 A 
ATOM      4  C   UNL     1     -17.584 -17.625  17.083  1.00  0.00     0.157 A 
ATOM      5  C   UNL     1     -18.011 -16.457  16.463  1.00  0.00     0.058 A 
ATOM      6  C   UNL     1     -18.539 -15.414  17.235  1.00  0.00    -0.022 A 
ENDROOT
BRANCH   6   7
ATOM      7  C   UNL     1     -19.038 -14.163  16.648  1.00  0.00     0.010 C 
ATOM      8  C   UNL     1     -19.781 -14.074  15.534  1.00  0.00     0.025 C 
BRANCH   8   9
ATOM      9  C   UNL     1     -20.243 -12.729  14.970  1.00  0.00     0.064 C 
ATOM     10  O   UNL     1     -20.626 -11.867  15.810  1.00  0.00    -0.545 OA
ATOM     11  O   UNL     1     -20.177 -12.655  13.710  1.00  0.00    -0.545 OA
ENDBRANCH   8   9
ENDBRANCH   6   7
BRANCH   3  12
ATOM     12  O   UNL     1     -17.240 -18.953  19.011  1.00  0.00    -0.504 OA
ATOM     13  H   UNL     1     -16.269 -18.916  19.033  1.00  0.00     0.293 HD
ENDBRANCH   3  12
BRANCH   4  14
ATOM     14  O   UNL     1     -17.068 -18.641  16.327  1.00  0.00    -0.504 OA
ATOM     15  H   UNL     1     -17.452 -19.448  16.719  1.00  0.00     0.293 HD
ENDBRANCH   4  14
TORSDOF 4
ENDMDL
MODEL 5
REMARK VINA RESULT:    -6.303      2.150      3.285
REMARK INTER + INTRA:          -7.561
REMARK INTER:                  -7.434
REMARK INTRA:                  -0.127
REMARK UNBOUND:                -0.153
REMARK SMILES O=C([O-])/C=C/c1ccc(O)c(O)c1
REMARK SMILES IDX 7 1 8 2 9 3 11 4 13 5 6 6 5 7 4 8 2 9 1 10 3 11 10 12 12 14
REMARK H PARENT 10 13 12 15
ROOT
ATOM      1  C   UNL     1     -19.281 -16.704  16.772  1.00  0.00     0.012 A 
ATOM      2  C   UNL     1     -19.753 -15.910  15.723  1.00  0.00     0.051 A 
ATOM      3  C   UNL     1     -19.694 -14.528  15.846  1.00  0.00     0.157 A 
ATOM      4  C   UNL     1     -19.178 -13.945  17.001  1.00  0.00     0.157 A 
ATOM      5  C   UNL     1     -18.707 -14.731  18.047  1.00  0.00     0.058 A 
ATOM      6  C   UNL     1     -18.745 -16.127  17.937  1.00  0.00    -0.022 A 
ENDROOT
BRANCH   6   7
ATOM      7  C   UNL     1     -18.294 -17.022  19.012  1.00  0.00     0.010 C 
ATOM      8  C   UNL     1     -17.132 -17.694  19.023  1.00  0.00     0.025 C 
BRANCH   8   9
ATOM      9  C   UNL     1     -16.744 -18.628  20.171  1.00  0.00     0.064 C 
ATOM     10  O   UNL     1     -15.676 -18.353  20.785  1.00  0.00    -0.545 OA
ATOM     11  O   UNL     1     -17.564 -19.571  20.360  1.00  0.00    -0.545 OA
ENDBRANCH   8   9
ENDBRANCH   6   7
BRANCH   3  12
ATOM     12  O   UNL     1     -20.140 -13.696  14.854  1.00  0.00    -0.504 OA
ATOM     13  H   UNL     1     -19.595 -13.866  14.067  1.00  0.00     0.293 HD
ENDBRANCH   3  12
BRANCH   4  14
ATOM     14  O   UNL     1     -19.138 -12.583  17.110  1.00  0.00    -0.504 OA
ATOM     15  H   UNL     1     -18.897 -12.426  18.043  1.00  0.00     0.293 HD
ENDBRANCH   4  14
TORSDOF 4
ENDMDL
MODEL 6
REMARK VINA RESULT:    -6.175      2.459      3.662
REMARK INTER + INTRA:          -7.410
REMARK INTER:                  -7.286
REMARK INTRA:                  -0.124
REMARK UNBOUND:                -0.153
REMARK SMILES O=C([O-])/C=C/c1ccc(O)c(O)c1
REMARK SMILES IDX 7 1 8 2 9 3 11 4 13 5 6 6 5 7 4 8 2 9 1 10 3 11 10 12 12 14
REMARK H PARENT 10 13 12 15
ROOT
ATOM      1  C   UNL     1     -18.315 -15.032  18.244  1.00  0.00     0.012 A 
ATOM      2  C   UNL     1     -18.837 -14.250  17.209  1.00  0.00     0.051 A 
ATOM      3  C   UNL     1     -19.519 -14.873  16.173  1.00  0.00     0.157 A 
ATOM      4  C   UNL     1     -19.675 -16.257  16.164  1.00  0.00     0.157 A 
ATOM      5  C   UNL     1     -19.159 -17.040  17.191  1.00  0.00     0.058 A 
ATOM      6  C   UNL     1     -18.479 -16.429  18.253  1.00  0.00    -0.022 A 
ENDROOT
BRANCH   6   7
ATOM      7  C   UNL     1     -17.880 -17.192  19.356  1.00  0.00     0.010 C 
ATOM      8  C   UNL     1     -16.872 -18.071  19.233  1.00  0.00     0.025 C 
BRANCH   8   9
ATOM      9  C   UNL     1     -16.318 -18.846  20.430  1.00  0.00     0.064 C 
ATOM     10  O   UNL     1     -16.968 -19.866  20.790  1.00  0.00    -0.545 OA
ATOM     11  O   UNL     1     -15.257 -18.353  20.908  1.00  0.00    -0.545 OA
ENDBRANCH   8   9
ENDBRANCH   6   7
BRANCH   3  12
ATOM     12  O   UNL     1     -20.054 -14.163  15.131  1.00  0.00    -0.504 OA
ATOM     13  H   UNL     1     -19.637 -14.487  14.315  1.00  0.00     0.293 HD
ENDBRANCH   3  12
BRANCH   4  14
ATOM     14  O   UNL     1     -20.340 -16.856  15.130  1.00  0.00    -0.504 OA
ATOM     15  H   UNL     1     -20.991 -17.435  15.569  1.00  0.00     0.293 HD
ENDBRANCH   4  14
TORSDOF 4
ENDMDL
MODEL 7
REMARK VINA RESULT:    -6.068      1.882      6.583
REMARK INTER + INTRA:          -7.284
REMARK INTER:                  -7.140
REMARK INTRA:                  -0.144
REMARK UNBOUND:                -0.153
REMARK SMILES O=C([O-])/C=C/c1ccc(O)c(O)c1
REMARK SMILES IDX 7 1 8 2 9 3 11 4 13 5 6 6 5 7 4 8 2 9 1 10 3 11 10 12 12 14
REMARK H PARENT 10 13 12 15
ROOT
ATOM      1  C   UNL     1     -17.077 -16.740  16.903  1.00  0.00     0.012 A 
ATOM      2  C   UNL     1     -16.385 -17.939  17.108  1.00  0.00     0.051 A 
ATOM      3  C   UNL     1     -16.654 -18.684  18.249  1.00  0.00     0.157 A 
ATOM      4  C   UNL     1     -17.594 -18.240  19.175  1.00  0.00     0.157 A 
ATOM      5  C   UNL     1     -18.285 -17.049  18.975  1.00  0.00     0.058 A 
ATOM      6  C   UNL     1     -18.038 -16.289  17.825  1.00  0.00    -0.022 A 
ENDROOT
BRANCH   6   7
ATOM      7  C   UNL     1     -18.706 -15.007  17.561  1.00  0.00     0.010 C 
ATOM      8  C   UNL     1     -19.077 -14.563  16.350  1.00  0.00     0.025 C 
BRANCH   8   9
ATOM      9  C   UNL     1     -19.748 -13.202  16.153  1.00  0.00     0.064 C 
ATOM     10  O   UNL     1     -19.711 -12.409  17.135  1.00  0.00    -0.545 OA
ATOM     11  O   UNL     1     -20.259 -13.047  15.008  1.00  0.00    -0.545 OA
ENDBRANCH   8   9
ENDBRANCH   6   7
BRANCH   3  12
ATOM     12  O   UNL     1     -16.011 -19.865  18.506  1.00  0.00    -0.504 OA
ATOM     13  H   UNL     1     -15.232 -19.903  17.926  1.00  0.00     0.293 HD
ENDBRANCH   3  12
BRANCH   4  14
ATOM     14  O   UNL     1     -17.838 -18.981  20.298  1.00  0.00    -0.504 OA
ATOM     15  H   UNL     1     -17.429 -18.464  21.017  1.00  0.00     0.293 HD
ENDBRANCH   4  14
TORSDOF 4
ENDMDL
MODEL 8
REMARK VINA RESULT:    -5.906      2.380      6.736
REMARK INTER + INTRA:          -7.095
REMARK INTER:                  -6.945
REMARK INTRA:                  -0.150
REMARK UNBOUND:                -0.153
REMARK SMILES O=C([O-])/C=C/c1ccc(O)c(O)c1
REMARK SMILES IDX 7 1 8 2 9 3 11 4 13 5 6 6 5 7 4 8 2 9 1 10 3 11 10 12 12 14
REMARK H PARENT 10 13 12 15
ROOT
ATOM      1  C   UNL     1     -17.772 -17.067  18.981  1.00  0.00     0.012 A 
ATOM      2  C   UNL     1     -17.194 -18.054  19.785  1.00  0.00     0.051 A 
ATOM      3  C   UNL     1     -16.193 -18.856  19.252  1.00  0.00     0.157 A 
ATOM      4  C   UNL     1     -15.777 -18.680  17.934  1.00  0.00     0.157 A 
ATOM      5  C   UNL     1     -16.348 -17.699  17.131  1.00  0.00     0.058 A 
ATOM      6  C   UNL     1     -17.350 -16.871  17.654  1.00  0.00    -0.022 A 
ENDROOT
BRANCH   6   7
ATOM      7  C   UNL     1     -18.021 -15.834  16.857  1.00  0.00     0.010 C 
ATOM      8  C   UNL     1     -18.728 -14.809  17.359  1.00  0.00     0.025 C 
BRANCH   8   9
ATOM      9  C   UNL     1     -19.418 -13.781  16.460  1.00  0.00     0.064 C 
ATOM     10  O   UNL     1     -19.505 -12.605  16.912  1.00  0.00    -0.545 OA
ATOM     11  O   UNL     1     -19.817 -14.255  15.358  1.00  0.00    -0.545 OA
ENDBRANCH   8   9
ENDBRANCH   6   7
BRANCH   3  12
ATOM     12  O   UNL     1     -15.588 -19.839  19.988  1.00  0.00    -0.504 OA
ATOM     13  H   UNL     1     -15.047 -20.367  19.377  1.00  0.00     0.293 HD
ENDBRANCH   3  12
BRANCH   4  14
ATOM     14  O   UNL     1     -14.798 -19.485  17.422  1.00  0.00    -0.504 OA
ATOM     15  H   UNL     1     -15.005 -20.368  17.783  1.00  0.00     0.293 HD
ENDBRANCH   4  14
TORSDOF 4
ENDMDL
