MODEL 1
REMARK VINA RESULT:    -7.344      0.000      0.000
REMARK INTER + INTRA:          -8.785
REMARK INTER:                  -8.633
REMARK INTRA:                  -0.153
REMARK UNBOUND:                -0.153
REMARK SMILES O=C([O-])/C=C/c1ccc(O)c(O)c1
REMARK SMILES IDX 7 1 8 2 9 3 11 4 13 5 6 6 5 7 4 8 2 9 1 10 3 11 10 12 12 14
REMARK H PARENT 10 13 12 15
ROOT
ATOM      1  C   UNL     1     -19.459 -12.977  17.274  1.00  0.00     0.012 A 
ATOM      2  C   UNL     1     -19.874 -11.688  16.922  1.00  0.00     0.051 A 
ATOM      3  C   UNL     1     -20.208 -11.427  15.600  1.00  0.00     0.157 A 
ATOM      4  C   UNL     1     -20.126 -12.434  14.640  1.00  0.00     0.157 A 
ATOM      5  C   UNL     1     -19.715 -13.716  14.986  1.00  0.00     0.058 A 
ATOM      6  C   UNL     1     -19.386 -14.005  16.317  1.00  0.00    -0.022 A 
ENDROOT
BRANCH   6   7
ATOM      7  C   UNL     1     -18.916 -15.327  16.751  1.00  0.00     0.010 C 
ATOM      8  C   UNL     1     -18.665 -15.680  18.022  1.00  0.00     0.025 C 
BRANCH   8   9
ATOM      9  C   UNL     1     -18.152 -17.074  18.392  1.00  0.00     0.064 C 
ATOM     10  O   UNL     1     -17.547 -17.177  19.496  1.00  0.00    -0.545 OA
ATOM     11  O   UNL     1     -18.411 -17.958  17.527  1.00  0.00    -0.545 OA
ENDBRANCH   8   9
ENDBRANCH   6   7
BRANCH   3  12
ATOM     12  O   UNL     1     -20.621 -10.187  15.192  1.00  0.00    -0.504 OA
ATOM     13  H   UNL     1     -21.562 -10.105  15.422  1.00  0.00     0.293 HD
ENDBRANCH   3  12
BRANCH   4  14
ATOM     14  O   UNL     1     -20.448 -12.156  13.341  1.00  0.00    -0.504 OA
ATOM     15  H   UNL     1     -19.591 -12.173  12.875  1.00  0.00     0.293 HD
ENDBRANCH   4  14
TORSDOF 4
ENDMDL
MODEL 2
REMARK VINA RESULT:    -6.967      0.814      1.815
REMARK INTER + INTRA:          -8.342
REMARK INTER:                  -8.190
REMARK INTRA:                  -0.151
REMARK UNBOUND:                -0.153
REMARK SMILES O=C([O-])/C=C/c1ccc(O)c(O)c1
REMARK SMILES IDX 7 1 8 2 9 3 11 4 13 5 6 6 5 7 4 8 2 9 1 10 3 11 10 12 12 14
REMARK H PARENT 10 13 12 15
ROOT
ATOM      1  C   UNL     1     -19.437 -13.931  15.289  1.00  0.00     0.012 A 
ATOM      2  C   UNL     1     -19.882 -12.951  14.396  1.00  0.00     0.051 A 
ATOM      3  C   UNL     1     -20.227 -11.700  14.889  1.00  0.00     0.157 A 
ATOM      4  C   UNL     1     -20.136 -11.429  16.252  1.00  0.00     0.157 A 
ATOM      5  C   UNL     1     -19.695 -12.401  17.144  1.00  0.00     0.058 A 
ATOM      6  C   UNL     1     -19.328 -13.666  16.666  1.00  0.00    -0.022 A 
ENDROOT
BRANCH   6   7
ATOM      7  C   UNL     1     -18.882 -14.751  17.550  1.00  0.00     0.010 C 
ATOM      8  C   UNL     1     -18.731 -16.034  17.185  1.00  0.00     0.025 C 
BRANCH   8   9
ATOM      9  C   UNL     1     -18.283 -17.113  18.174  1.00  0.00     0.064 C 
ATOM     10  O   UNL     1     -17.844 -16.710  19.287  1.00  0.00    -0.545 OA
ATOM     11  O   UNL     1     -18.418 -18.291  17.737  1.00  0.00    -0.545 OA
ENDBRANCH   8   9
ENDBRANCH   6   7
BRANCH   3  12
ATOM     12  O   UNL     1     -20.669 -10.698  14.066  1.00  0.00    -0.504 OA
ATOM     13  H   UNL     1     -20.537  -9.857  14.536  1.00  0.00     0.293 HD
ENDBRANCH   3  12
BRANCH   4  14
ATOM     14  O   UNL     1     -20.492 -10.195  16.721  1.00  0.00    -0.504 OA
ATOM     15  H   UNL     1     -20.212  -9.583  16.014  1.00  0.00     0.293 HD
ENDBRANCH   4  14
TORSDOF 4
ENDMDL
MODEL 3
REMARK VINA RESULT:    -6.631      1.049      5.945
REMARK INTER + INTRA:          -7.946
REMARK INTER:                  -7.798
REMARK INTRA:                  -0.148
REMARK UNBOUND:                -0.153
REMARK SMILES O=C([O-])/C=C/c1ccc(O)c(O)c1
REMARK SMILES IDX 7 1 8 2 9 3 11 4 13 5 6 6 5 7 4 8 2 9 1 10 3 11 10 12 12 14
REMARK H PARENT 10 13 12 15
ROOT
ATOM      1  C   UNL     1     -18.862 -15.084  18.138  1.00  0.00     0.012 A 
ATOM      2  C   UNL     1     -18.295 -15.926  19.100  1.00  0.00     0.051 A 
ATOM      3  C   UNL     1     -17.866 -17.190  18.718  1.00  0.00     0.157 A 
ATOM      4  C   UNL     1     -18.003 -17.611  17.398  1.00  0.00     0.157 A 
ATOM      5  C   UNL     1     -18.565 -16.777  16.438  1.00  0.00     0.058 A 
ATOM      6  C   UNL     1     -18.993 -15.493  16.799  1.00  0.00    -0.022 A 
ENDROOT
BRANCH   6   7
ATOM      7  C   UNL     1     -19.623 -14.568  15.848  1.00  0.00     0.010 C 
ATOM      8  C   UNL     1     -19.789 -13.250  16.044  1.00  0.00     0.025 C 
BRANCH   8   9
ATOM      9  C   UNL     1     -20.479 -12.355  15.012  1.00  0.00     0.064 C 
ATOM     10  O   UNL     1     -20.201 -12.575  13.800  1.00  0.00    -0.545 OA
ATOM     11  O   UNL     1     -21.255 -11.497  15.521  1.00  0.00    -0.545 OA
ENDBRANCH   8   9
ENDBRANCH   6   7
BRANCH   3  12
ATOM     12  O   UNL     1     -17.303 -18.061  19.613  1.00  0.00    -0.504 OA
ATOM     13  H   UNL     1     -16.483 -18.397  19.213  1.00  0.00     0.293 HD
ENDBRANCH   3  12
BRANCH   4  14
ATOM     14  O   UNL     1     -17.584 -18.863  17.042  1.00  0.00    -0.504 OA
ATOM     15  H   UNL     1     -16.878 -18.701  16.388  1.00  0.00     0.293 HD
ENDBRANCH   4  14
TORSDOF 4
ENDMDL
MODEL 4
REMARK VINA RESULT:    -6.369      1.259      5.911
REMARK INTER + INTRA:          -7.638
REMARK INTER:                  -7.518
REMARK INTRA:                  -0.120
REMARK UNBOUND:                -0.153
REMARK SMILES O=C([O-])/C=C/c1ccc(O)c(O)c1
REMARK SMILES IDX 7 1 8 2 9 3 11 4 13 5 6 6 5 7 4 8 2 9 1 10 3 11 10 12 12 14
REMARK H PARENT 10 13 12 15
ROOT
ATOM      1  C   UNL     1     -19.799 -15.275  15.652  1.00  0.00     0.012 A 
ATOM      2  C   UNL     1     -19.586 -16.592  16.070  1.00  0.00     0.051 A 
ATOM      3  C   UNL     1     -19.014 -16.819  17.315  1.00  0.00     0.157 A 
ATOM      4  C   UNL     1     -18.654 -15.749  18.130  1.00  0.00     0.157 A 
ATOM      5  C   UNL     1     -18.865 -14.437  17.720  1.00  0.00     0.058 A 
ATOM      6  C   UNL     1     -19.453 -14.187  16.473  1.00  0.00    -0.022 A 
ENDROOT
BRANCH   6   7
ATOM      7  C   UNL     1     -19.679 -12.829  15.959  1.00  0.00     0.010 C 
ATOM      8  C   UNL     1     -20.137 -11.794  16.682  1.00  0.00     0.025 C 
BRANCH   8   9
ATOM      9  C   UNL     1     -20.370 -10.412  16.067  1.00  0.00     0.064 C 
ATOM     10  O   UNL     1     -19.614  -9.483  16.466  1.00  0.00    -0.545 OA
ATOM     11  O   UNL     1     -21.307 -10.384  15.219  1.00  0.00    -0.545 OA
ENDBRANCH   8   9
ENDBRANCH   6   7
BRANCH   3  12
ATOM     12  O   UNL     1     -18.779 -18.085  17.781  1.00  0.00    -0.504 OA
ATOM     13  H   UNL     1     -19.215 -18.704  17.171  1.00  0.00     0.293 HD
ENDBRANCH   3  12
BRANCH   4  14
ATOM     14  O   UNL     1     -18.082 -15.990  19.349  1.00  0.00    -0.504 OA
ATOM     15  H   UNL     1     -18.040 -16.964  19.402  1.00  0.00     0.293 HD
ENDBRANCH   4  14
TORSDOF 4
ENDMDL
MODEL 5
REMARK VINA RESULT:    -6.332      1.501      5.606
REMARK INTER + INTRA:          -7.595
REMARK INTER:                  -7.459
REMARK INTRA:                  -0.136
REMARK UNBOUND:                -0.153
REMARK SMILES O=C([O-])/C=C/c1ccc(O)c(O)c1
REMARK SMILES IDX 7 1 8 2 9 3 11 4 13 5 6 6 5 7 4 8 2 9 1 10 3 11 10 12 12 14
REMARK H PARENT 10 13 12 15
ROOT
ATOM      1  C   UNL     1     -18.830 -13.912  17.511  1.00  0.00     0.012 A 
ATOM      2  C   UNL     1     -18.678 -15.221  17.979  1.00  0.00     0.051 A 
ATOM      3  C   UNL     1     -19.163 -16.270  17.209  1.00  0.00     0.157 A 
ATOM      4  C   UNL     1     -19.793 -16.019  15.993  1.00  0.00     0.157 A 
ATOM      5  C   UNL     1     -19.945 -14.719  15.523  1.00  0.00     0.058 A 
ATOM      6  C   UNL     1     -19.452 -13.647  16.278  1.00  0.00    -0.022 A 
ENDROOT
BRANCH   6   7
ATOM      7  C   UNL     1     -19.602 -12.246  15.862  1.00  0.00     0.010 C 
ATOM      8  C   UNL     1     -20.156 -11.273  16.604  1.00  0.00     0.025 C 
BRANCH   8   9
ATOM      9  C   UNL     1     -20.298  -9.840  16.088  1.00  0.00     0.064 C 
ATOM     10  O   UNL     1     -19.367  -9.040  16.384  1.00  0.00    -0.545 OA
ATOM     11  O   UNL     1     -21.351  -9.642  15.418  1.00  0.00    -0.545 OA
ENDBRANCH   8   9
ENDBRANCH   6   7
BRANCH   3  12
ATOM     12  O   UNL     1     -19.045 -17.574  17.612  1.00  0.00    -0.504 OA
ATOM     13  H   UNL     1     -18.866 -18.107  16.819  1.00  0.00     0.293 HD
ENDBRANCH   3  12
BRANCH   4  14
ATOM     14  O   UNL     1     -20.274 -17.064  15.253  1.00  0.00    -0.504 OA
ATOM     15  H   UNL     1     -19.481 -17.431  14.818  1.00  0.00     0.293 HD
ENDBRANCH   4  14
TORSDOF 4
ENDMDL
MODEL 6
REMARK VINA RESULT:    -6.327      1.643      6.125
REMARK INTER + INTRA:          -7.589
REMARK INTER:                  -7.464
REMARK INTRA:                  -0.125
REMARK UNBOUND:                -0.153
REMARK SMILES O=C([O-])/C=C/c1ccc(O)c(O)c1
REMARK SMILES IDX 7 1 8 2 9 3 11 4 13 5 6 6 5 7 4 8 2 9 1 10 3 11 10 12 12 14
REMARK H PARENT 10 13 12 15
ROOT
ATOM      1  C   UNL     1     -18.246 -16.219  19.014  1.00  0.00     0.012 A 
ATOM      2  C   UNL     1     -17.656 -17.450  19.320  1.00  0.00     0.051 A 
ATOM      3  C   UNL     1     -17.191 -18.249  18.284  1.00  0.00     0.157 A 
ATOM      4  C   UNL     1     -17.316 -17.831  16.961  1.00  0.00     0.157 A 
ATOM      5  C   UNL     1     -17.900 -16.608  16.652  1.00  0.00     0.058 A 
ATOM      6  C   UNL     1     -18.364 -15.780  17.683  1.00  0.00    -0.022 A 
ENDROOT
BRANCH   6   7
ATOM      7  C   UNL     1     -19.020 -14.489  17.432  1.00  0.00     0.010 C 
ATOM      8  C   UNL     1     -19.311 -13.992  16.219  1.00  0.00     0.025 C 
BRANCH   8   9
ATOM      9  C   UNL     1     -19.975 -12.625  16.040  1.00  0.00     0.064 C 
ATOM     10  O   UNL     1     -20.604 -12.442  14.960  1.00  0.00    -0.545 OA
ATOM     11  O   UNL     1     -19.804 -11.844  17.018  1.00  0.00    -0.545 OA
ENDBRANCH   8   9
ENDBRANCH   6   7
BRANCH   3  12
ATOM     12  O   UNL     1     -16.605 -19.464  18.518  1.00  0.00    -0.504 OA
ATOM     13  H   UNL     1     -15.661 -19.302  18.689  1.00  0.00     0.293 HD
ENDBRANCH   3  12
BRANCH   4  14
ATOM     14  O   UNL     1     -16.862 -18.636  15.953  1.00  0.00    -0.504 OA
ATOM     15  H   UNL     1     -16.660 -19.481  16.397  1.00  0.00     0.293 HD
ENDBRANCH   4  14
TORSDOF 4
ENDMDL
MODEL 7
REMARK VINA RESULT:    -6.133      2.497      3.653
REMARK INTER + INTRA:          -7.361
REMARK INTER:                  -7.235
REMARK INTRA:                  -0.126
REMARK UNBOUND:                -0.153
REMARK SMILES O=C([O-])/C=C/c1ccc(O)c(O)c1
REMARK SMILES IDX 7 1 8 2 9 3 11 4 13 5 6 6 5 7 4 8 2 9 1 10 3 11 10 12 12 14
REMARK H PARENT 10 13 12 15
ROOT
ATOM      1  C   UNL     1     -18.295 -15.102  18.277  1.00  0.00     0.012 A 
ATOM      2  C   UNL     1     -18.805 -14.302  17.250  1.00  0.00     0.051 A 
ATOM      3  C   UNL     1     -19.504 -14.904  16.212  1.00  0.00     0.157 A 
ATOM      4  C   UNL     1     -19.689 -16.284  16.194  1.00  0.00     0.157 A 
ATOM      5  C   UNL     1     -19.184 -17.084  17.213  1.00  0.00     0.058 A 
ATOM      6  C   UNL     1     -18.488 -16.496  18.277  1.00  0.00    -0.022 A 
ENDROOT
BRANCH   6   7
ATOM      7  C   UNL     1     -17.900 -17.278  19.373  1.00  0.00     0.010 C 
ATOM      8  C   UNL     1     -16.776 -18.008  19.287  1.00  0.00     0.025 C 
BRANCH   8   9
ATOM      9  C   UNL     1     -16.240 -18.817  20.470  1.00  0.00     0.064 C 
ATOM     10  O   UNL     1     -15.134 -18.446  20.952  1.00  0.00    -0.545 OA
ATOM     11  O   UNL     1     -16.994 -19.771  20.817  1.00  0.00    -0.545 OA
ENDBRANCH   8   9
ENDBRANCH   6   7
BRANCH   3  12
ATOM     12  O   UNL     1     -20.028 -14.175  15.178  1.00  0.00    -0.504 OA
ATOM     13  H   UNL     1     -19.906 -13.235  15.395  1.00  0.00     0.293 HD
ENDBRANCH   3  12
BRANCH   4  14
ATOM     14  O   UNL     1     -20.370 -16.861  15.159  1.00  0.00    -0.504 OA
ATOM     15  H   UNL     1     -21.257 -16.456  15.203  1.00  0.00     0.293 HD
ENDBRANCH   4  14
TORSDOF 4
ENDMDL
MODEL 8
REMARK VINA RESULT:    -6.126      1.792      6.475
REMARK INTER + INTRA:          -7.353
REMARK INTER:                  -7.206
REMARK INTRA:                  -0.147
REMARK UNBOUND:                -0.153
REMARK SMILES O=C([O-])/C=C/c1ccc(O)c(O)c1
REMARK SMILES IDX 7 1 8 2 9 3 11 4 13 5 6 6 5 7 4 8 2 9 1 10 3 11 10 12 12 14
REMARK H PARENT 10 13 12 15
ROOT
ATOM      1  C   UNL     1     -17.215 -16.454  16.813  1.00  0.00     0.012 A 
ATOM      2  C   UNL     1     -16.476 -17.630  16.976  1.00  0.00     0.051 A 
ATOM      3  C   UNL     1     -16.667 -18.391  18.122  1.00  0.00     0.157 A 
ATOM      4  C   UNL     1     -17.577 -17.984  19.094  1.00  0.00     0.157 A 
ATOM      5  C   UNL     1     -18.315 -16.816  18.936  1.00  0.00     0.058 A 
ATOM      6  C   UNL     1     -18.148 -16.041  17.781  1.00  0.00    -0.022 A 
ENDROOT
BRANCH   6   7
ATOM      7  C   UNL     1     -18.869 -14.781  17.558  1.00  0.00     0.010 C 
ATOM      8  C   UNL     1     -19.089 -14.216  16.360  1.00  0.00     0.025 C 
BRANCH   8   9
ATOM      9  C   UNL     1     -19.830 -12.885  16.212  1.00  0.00     0.064 C 
ATOM     10  O   UNL     1     -19.690 -12.055  17.152  1.00  0.00    -0.545 OA
ATOM     11  O   UNL     1     -20.497 -12.791  15.143  1.00  0.00    -0.545 OA
ENDBRANCH   8   9
ENDBRANCH   6   7
BRANCH   3  12
ATOM     12  O   UNL     1     -15.973 -19.551  18.340  1.00  0.00    -0.504 OA
ATOM     13  H   UNL     1     -15.255 -19.347  18.963  1.00  0.00     0.293 HD
ENDBRANCH   3  12
BRANCH   4  14
ATOM     14  O   UNL     1     -17.744 -18.739  20.222  1.00  0.00    -0.504 OA
ATOM     15  H   UNL     1     -17.568 -18.118  20.953  1.00  0.00     0.293 HD
ENDBRANCH   4  14
TORSDOF 4
ENDMDL
MODEL 9
REMARK VINA RESULT:    -6.006      1.480      2.442
REMARK INTER + INTRA:          -7.212
REMARK INTER:                  -7.084
REMARK INTRA:                  -0.128
REMARK UNBOUND:                -0.153
REMARK SMILES O=C([O-])/C=C/c1ccc(O)c(O)c1
REMARK SMILES IDX 7 1 8 2 9 3 11 4 13 5 6 6 5 7 4 8 2 9 1 10 3 11 10 12 12 14
REMARK H PARENT 10 13 12 15
ROOT
ATOM      1  C   UNL     1     -19.456 -15.606  16.018  1.00  0.00     0.012 A 
ATOM      2  C   UNL     1     -20.199 -14.679  15.279  1.00  0.00     0.051 A 
ATOM      3  C   UNL     1     -20.189 -13.346  15.668  1.00  0.00     0.157 A 
ATOM      4  C   UNL     1     -19.454 -12.942  16.780  1.00  0.00     0.157 A 
ATOM      5  C   UNL     1     -18.713 -13.859  17.517  1.00  0.00     0.058 A 
ATOM      6  C   UNL     1     -18.699 -15.207  17.134  1.00  0.00    -0.022 A 
ENDROOT
BRANCH   6   7
ATOM      7  C   UNL     1     -17.966 -16.238  17.881  1.00  0.00     0.010 C 
ATOM      8  C   UNL     1     -18.475 -16.985  18.874  1.00  0.00     0.025 C 
BRANCH   8   9
ATOM      9  C   UNL     1     -17.638 -18.024  19.621  1.00  0.00     0.064 C 
ATOM     10  O   UNL     1     -16.396 -17.808  19.683  1.00  0.00    -0.545 OA
ATOM     11  O   UNL     1     -18.316 -18.982  20.091  1.00  0.00    -0.545 OA
ENDBRANCH   8   9
ENDBRANCH   6   7
BRANCH   3  12
ATOM     12  O   UNL     1     -20.895 -12.391  14.986  1.00  0.00    -0.504 OA
ATOM     13  H   UNL     1     -20.461 -11.537  15.152  1.00  0.00     0.293 HD
ENDBRANCH   3  12
BRANCH   4  14
ATOM     14  O   UNL     1     -19.464 -11.627  17.155  1.00  0.00    -0.504 OA
ATOM     15  H   UNL     1     -19.114 -11.637  18.065  1.00  0.00     0.293 HD
ENDBRANCH   4  14
TORSDOF 4
ENDMDL
