MODEL 1
REMARK VINA RESULT:    -5.248      0.000      0.000
REMARK INTER + INTRA:          -6.610
REMARK INTER:                  -6.321
REMARK INTRA:                  -0.288
REMARK UNBOUND:                -0.288
REMARK SMILES O=C1O[C@H]([C@@H](O)CO)C([O-])=C1O
REMARK SMILES IDX 5 1 7 2 8 3 4 5 9 6 3 7 11 8 2 9 1 10 10 11 12 12 6 14
REMARK H PARENT 8 4 12 13 6 15
ROOT
ATOM      1  C   UNL     1     -19.696 -16.047  16.439  1.00  0.00     0.184 C 
ENDROOT
BRANCH   1   2
ATOM      2  C   UNL     1     -18.719 -17.032  17.091  1.00  0.00     0.192 C 
BRANCH   2   3
ATOM      3  O   UNL     1     -17.521 -16.324  17.449  1.00  0.00    -0.394 OA
ATOM      4  H   UNL     1     -16.838 -17.027  17.455  1.00  0.00     0.210 HD
ENDBRANCH   2   3
ENDBRANCH   1   2
BRANCH   1   5
ATOM      5  C   UNL     1     -19.060 -14.693  16.043  1.00  0.00     0.227 C 
ATOM      6  C   UNL     1     -19.309 -13.559  17.004  1.00  0.00    -0.037 C 
ATOM      7  O   UNL     1     -19.592 -14.242  14.785  1.00  0.00    -0.450 OA
ATOM      8  C   UNL     1     -19.894 -12.571  16.329  1.00  0.00     0.193 C 
ATOM      9  C   UNL     1     -20.078 -12.972  14.927  1.00  0.00     0.373 C 
ATOM     10  O   UNL     1     -20.583 -12.317  14.029  1.00  0.00    -0.243 OA
ATOM     11  O   UNL     1     -18.954 -13.709  18.204  1.00  0.00    -0.870 OA
BRANCH   8  12
ATOM     12  O   UNL     1     -20.262 -11.380  16.896  1.00  0.00    -0.502 OA
ATOM     13  H   UNL     1     -19.986 -10.757  16.189  1.00  0.00     0.293 HD
ENDBRANCH   8  12
ENDBRANCH   1   5
BRANCH   1  14
ATOM     14  O   UNL     1     -20.284 -16.705  15.294  1.00  0.00    -0.387 OA
ATOM     15  H   UNL     1     -19.958 -17.641  15.384  1.00  0.00     0.211 HD
ENDBRANCH   1  14
TORSDOF 5
ENDMDL
MODEL 2
REMARK VINA RESULT:    -5.195      1.615      4.728
REMARK INTER + INTRA:          -6.546
REMARK INTER:                  -6.223
REMARK INTRA:                  -0.323
REMARK UNBOUND:                -0.288
REMARK SMILES O=C1O[C@H]([C@@H](O)CO)C([O-])=C1O
REMARK SMILES IDX 5 1 7 2 8 3 4 5 9 6 3 7 11 8 2 9 1 10 10 11 12 12 6 14
REMARK H PARENT 8 4 12 13 6 15
ROOT
ATOM      1  C   UNL     1     -20.402 -10.920  15.457  1.00  0.00     0.184 C 
ENDROOT
BRANCH   1   2
ATOM      2  C   UNL     1     -20.255  -9.799  16.493  1.00  0.00     0.192 C 
BRANCH   2   3
ATOM      3  O   UNL     1     -19.285  -8.853  16.014  1.00  0.00    -0.394 OA
ATOM      4  H   UNL     1     -18.737  -9.385  15.398  1.00  0.00     0.210 HD
ENDBRANCH   2   3
ENDBRANCH   1   2
BRANCH   1   5
ATOM      5  C   UNL     1     -19.326 -12.027  15.565  1.00  0.00     0.227 C 
ATOM      6  C   UNL     1     -19.670 -13.327  14.886  1.00  0.00    -0.037 C 
ATOM      7  O   UNL     1     -19.104 -12.371  16.945  1.00  0.00    -0.450 OA
ATOM      8  C   UNL     1     -19.611 -14.295  15.800  1.00  0.00     0.193 C 
ATOM      9  C   UNL     1     -19.250 -13.720  17.105  1.00  0.00     0.373 C 
ATOM     10  O   UNL     1     -19.112 -14.314  18.162  1.00  0.00    -0.243 OA
ATOM     11  O   UNL     1     -19.938 -13.301  13.655  1.00  0.00    -0.870 OA
BRANCH   8  12
ATOM     12  O   UNL     1     -19.865 -15.612  15.527  1.00  0.00    -0.502 OA
ATOM     13  H   UNL     1     -20.817 -15.660  15.767  1.00  0.00     0.293 HD
ENDBRANCH   8  12
ENDBRANCH   1   5
BRANCH   1  14
ATOM     14  O   UNL     1     -21.733 -11.467  15.588  1.00  0.00    -0.387 OA
ATOM     15  H   UNL     1     -22.146 -11.259  14.707  1.00  0.00     0.211 HD
ENDBRANCH   1  14
TORSDOF 5
ENDMDL
MODEL 3
REMARK VINA RESULT:    -5.104      1.047      3.997
REMARK INTER + INTRA:          -6.436
REMARK INTER:                  -6.083
REMARK INTRA:                  -0.354
REMARK UNBOUND:                -0.288
REMARK SMILES O=C1O[C@H]([C@@H](O)CO)C([O-])=C1O
REMARK SMILES IDX 5 1 7 2 8 3 4 5 9 6 3 7 11 8 2 9 1 10 10 11 12 12 6 14
REMARK H PARENT 8 4 12 13 6 15
ROOT
ATOM      1  C   UNL     1     -19.852 -12.223  14.824  1.00  0.00     0.184 C 
ENDROOT
BRANCH   1   2
ATOM      2  C   UNL     1     -20.533 -10.864  15.025  1.00  0.00     0.192 C 
BRANCH   2   3
ATOM      3  O   UNL     1     -20.213 -10.378  16.340  1.00  0.00    -0.394 OA
ATOM      4  H   UNL     1     -19.233 -10.408  16.358  1.00  0.00     0.210 HD
ENDBRANCH   2   3
ENDBRANCH   1   2
BRANCH   1   5
ATOM      5  C   UNL     1     -20.233 -13.284  15.885  1.00  0.00     0.227 C 
ATOM      6  C   UNL     1     -19.146 -13.629  16.870  1.00  0.00    -0.037 C 
ATOM      7  O   UNL     1     -20.567 -14.529  15.244  1.00  0.00    -0.450 OA
ATOM      8  C   UNL     1     -18.928 -14.942  16.797  1.00  0.00     0.193 C 
ATOM      9  C   UNL     1     -19.815 -15.534  15.785  1.00  0.00     0.373 C 
ATOM     10  O   UNL     1     -19.881 -16.707  15.455  1.00  0.00    -0.243 OA
ATOM     11  O   UNL     1     -18.650 -12.696  17.557  1.00  0.00    -0.870 OA
BRANCH   8  12
ATOM     12  O   UNL     1     -18.001 -15.599  17.561  1.00  0.00    -0.502 OA
ATOM     13  H   UNL     1     -17.642 -16.229  16.898  1.00  0.00     0.293 HD
ENDBRANCH   8  12
ENDBRANCH   1   5
BRANCH   1  14
ATOM     14  O   UNL     1     -20.166 -12.679  13.489  1.00  0.00    -0.387 OA
ATOM     15  H   UNL     1     -20.450 -11.842  13.031  1.00  0.00     0.211 HD
ENDBRANCH   1  14
TORSDOF 5
ENDMDL
MODEL 4
REMARK VINA RESULT:    -5.049      1.468      3.083
REMARK INTER + INTRA:          -6.370
REMARK INTER:                  -5.778
REMARK INTRA:                  -0.592
REMARK UNBOUND:                -0.288
REMARK SMILES O=C1O[C@H]([C@@H](O)CO)C([O-])=C1O
REMARK SMILES IDX 5 1 7 2 8 3 4 5 9 6 3 7 11 8 2 9 1 10 10 11 12 12 6 14
REMARK H PARENT 8 4 12 13 6 15
ROOT
ATOM      1  C   UNL     1     -18.135 -17.679  17.355  1.00  0.00     0.184 C 
ENDROOT
BRANCH   1   2
ATOM      2  C   UNL     1     -16.958 -17.460  18.313  1.00  0.00     0.192 C 
BRANCH   2   3
ATOM      3  O   UNL     1     -17.455 -17.464  19.661  1.00  0.00    -0.394 OA
ATOM      4  H   UNL     1     -16.902 -18.144  20.102  1.00  0.00     0.210 HD
ENDBRANCH   2   3
ENDBRANCH   1   2
BRANCH   1   5
ATOM      5  C   UNL     1     -19.218 -16.576  17.420  1.00  0.00     0.227 C 
ATOM      6  C   UNL     1     -19.734 -16.099  16.087  1.00  0.00    -0.037 C 
ATOM      7  O   UNL     1     -18.692 -15.399  18.061  1.00  0.00    -0.450 OA
ATOM      8  C   UNL     1     -19.536 -14.784  16.017  1.00  0.00     0.193 C 
ATOM      9  C   UNL     1     -18.887 -14.316  17.250  1.00  0.00     0.373 C 
ATOM     10  O   UNL     1     -18.556 -13.174  17.526  1.00  0.00    -0.243 OA
ATOM     11  O   UNL     1     -20.234 -16.952  15.305  1.00  0.00    -0.870 OA
BRANCH   8  12
ATOM     12  O   UNL     1     -19.890 -14.021  14.936  1.00  0.00    -0.502 OA
ATOM     13  H   UNL     1     -20.149 -14.725  14.303  1.00  0.00     0.293 HD
ENDBRANCH   8  12
ENDBRANCH   1   5
BRANCH   1  14
ATOM     14  O   UNL     1     -17.597 -17.808  16.020  1.00  0.00    -0.387 OA
ATOM     15  H   UNL     1     -18.349 -18.224  15.517  1.00  0.00     0.211 HD
ENDBRANCH   1  14
TORSDOF 5
ENDMDL
MODEL 5
REMARK VINA RESULT:    -4.901      1.198      2.925
REMARK INTER + INTRA:          -6.192
REMARK INTER:                  -5.934
REMARK INTRA:                  -0.258
REMARK UNBOUND:                -0.288
REMARK SMILES O=C1O[C@H]([C@@H](O)CO)C([O-])=C1O
REMARK SMILES IDX 5 1 7 2 8 3 4 5 9 6 3 7 11 8 2 9 1 10 10 11 12 12 6 14
REMARK H PARENT 8 4 12 13 6 15
ROOT
ATOM      1  C   UNL     1     -18.949 -14.281  16.686  1.00  0.00     0.184 C 
ENDROOT
BRANCH   1   2
ATOM      2  C   UNL     1     -19.107 -15.786  16.442  1.00  0.00     0.192 C 
BRANCH   2   3
ATOM      3  O   UNL     1     -20.226 -15.995  15.564  1.00  0.00    -0.394 OA
ATOM      4  H   UNL     1     -19.905 -16.692  14.954  1.00  0.00     0.210 HD
ENDBRANCH   2   3
ENDBRANCH   1   2
BRANCH   1   5
ATOM      5  C   UNL     1     -20.127 -13.427  16.159  1.00  0.00     0.227 C 
ATOM      6  C   UNL     1     -19.924 -12.823  14.794  1.00  0.00    -0.037 C 
ATOM      7  O   UNL     1     -20.359 -12.307  17.034  1.00  0.00    -0.450 OA
ATOM      8  C   UNL     1     -20.063 -11.503  14.904  1.00  0.00     0.193 C 
ATOM      9  C   UNL     1     -20.344 -11.151  16.304  1.00  0.00     0.373 C 
ATOM     10  O   UNL     1     -20.523 -10.036  16.766  1.00  0.00    -0.243 OA
ATOM     11  O   UNL     1     -19.675 -13.600  13.833  1.00  0.00    -0.870 OA
BRANCH   8  12
ATOM     12  O   UNL     1     -19.944 -10.637  13.850  1.00  0.00    -0.502 OA
ATOM     13  H   UNL     1     -19.787 -11.274  13.118  1.00  0.00     0.293 HD
ENDBRANCH   8  12
ENDBRANCH   1   5
BRANCH   1  14
ATOM     14  O   UNL     1     -18.751 -14.085  18.105  1.00  0.00    -0.387 OA
ATOM     15  H   UNL     1     -18.746 -13.093  18.192  1.00  0.00     0.211 HD
ENDBRANCH   1  14
TORSDOF 5
ENDMDL
MODEL 6
REMARK VINA RESULT:    -4.496      1.330      4.645
REMARK INTER + INTRA:          -5.704
REMARK INTER:                  -5.574
REMARK INTRA:                  -0.130
REMARK UNBOUND:                -0.288
REMARK SMILES O=C1O[C@H]([C@@H](O)CO)C([O-])=C1O
REMARK SMILES IDX 5 1 7 2 8 3 4 5 9 6 3 7 11 8 2 9 1 10 10 11 12 12 6 14
REMARK H PARENT 8 4 12 13 6 15
ROOT
ATOM      1  C   UNL     1     -19.942 -13.687  16.077  1.00  0.00     0.184 C 
ENDROOT
BRANCH   1   2
ATOM      2  C   UNL     1     -19.801 -13.060  14.686  1.00  0.00     0.192 C 
BRANCH   2   3
ATOM      3  O   UNL     1     -20.808 -12.046  14.533  1.00  0.00    -0.394 OA
ATOM      4  H   UNL     1     -20.702 -11.500  15.340  1.00  0.00     0.210 HD
ENDBRANCH   2   3
ENDBRANCH   1   2
BRANCH   1   5
ATOM      5  C   UNL     1     -18.894 -14.783  16.387  1.00  0.00     0.227 C 
ATOM      6  C   UNL     1     -19.417 -16.196  16.373  1.00  0.00    -0.037 C 
ATOM      7  O   UNL     1     -18.353 -14.596  17.707  1.00  0.00    -0.450 OA
ATOM      8  C   UNL     1     -19.160 -16.740  17.562  1.00  0.00     0.193 C 
ATOM      9  C   UNL     1     -18.484 -15.755  18.420  1.00  0.00     0.373 C 
ATOM     10  O   UNL     1     -18.107 -15.910  19.570  1.00  0.00    -0.243 OA
ATOM     11  O   UNL     1     -19.973 -16.613  15.322  1.00  0.00    -0.870 OA
BRANCH   8  12
ATOM     12  O   UNL     1     -19.499 -18.023  17.898  1.00  0.00    -0.502 OA
ATOM     13  H   UNL     1     -19.412 -17.977  18.875  1.00  0.00     0.293 HD
ENDBRANCH   8  12
ENDBRANCH   1   5
BRANCH   1  14
ATOM     14  O   UNL     1     -19.886 -12.618  17.049  1.00  0.00    -0.387 OA
ATOM     15  H   UNL     1     -20.773 -12.179  16.946  1.00  0.00     0.211 HD
ENDBRANCH   1  14
TORSDOF 5
ENDMDL
MODEL 7
REMARK VINA RESULT:    -4.337      2.861      5.633
REMARK INTER + INTRA:          -5.512
REMARK INTER:                  -4.927
REMARK INTRA:                  -0.585
REMARK UNBOUND:                -0.288
REMARK SMILES O=C1O[C@H]([C@@H](O)CO)C([O-])=C1O
REMARK SMILES IDX 5 1 7 2 8 3 4 5 9 6 3 7 11 8 2 9 1 10 10 11 12 12 6 14
REMARK H PARENT 8 4 12 13 6 15
ROOT
ATOM      1  C   UNL     1     -19.040 -16.812  17.841  1.00  0.00     0.184 C 
ENDROOT
BRANCH   1   2
ATOM      2  C   UNL     1     -19.148 -15.904  16.611  1.00  0.00     0.192 C 
BRANCH   2   3
ATOM      3  O   UNL     1     -19.889 -16.595  15.592  1.00  0.00    -0.394 OA
ATOM      4  H   UNL     1     -20.396 -17.265  16.097  1.00  0.00     0.210 HD
ENDBRANCH   2   3
ENDBRANCH   1   2
BRANCH   1   5
ATOM      5  C   UNL     1     -18.160 -18.066  17.626  1.00  0.00     0.227 C 
ATOM      6  C   UNL     1     -17.227 -18.401  18.761  1.00  0.00    -0.037 C 
ATOM      7  O   UNL     1     -17.307 -17.885  16.481  1.00  0.00    -0.450 OA
ATOM      8  C   UNL     1     -15.986 -18.431  18.277  1.00  0.00     0.193 C 
ATOM      9  C   UNL     1     -16.009 -18.115  16.842  1.00  0.00     0.373 C 
ATOM     10  O   UNL     1     -15.055 -18.050  16.083  1.00  0.00    -0.243 OA
ATOM     11  O   UNL     1     -17.726 -18.588  19.904  1.00  0.00    -0.870 OA
BRANCH   8  12
ATOM     12  O   UNL     1     -14.882 -18.708  19.039  1.00  0.00    -0.502 OA
ATOM     13  H   UNL     1     -15.133 -19.587  19.398  1.00  0.00     0.293 HD
ENDBRANCH   8  12
ENDBRANCH   1   5
BRANCH   1  14
ATOM     14  O   UNL     1     -18.550 -16.009  18.938  1.00  0.00    -0.387 OA
ATOM     15  H   UNL     1     -17.663 -15.700  18.608  1.00  0.00     0.211 HD
ENDBRANCH   1  14
TORSDOF 5
ENDMDL
MODEL 8
REMARK VINA RESULT:    -4.319      1.433      4.438
REMARK INTER + INTRA:          -5.491
REMARK INTER:                  -5.884
REMARK INTRA:                   0.393
REMARK UNBOUND:                -0.288
REMARK SMILES O=C1O[C@H]([C@@H](O)CO)C([O-])=C1O
REMARK SMILES IDX 5 1 7 2 8 3 4 5 9 6 3 7 11 8 2 9 1 10 10 11 12 12 6 14
REMARK H PARENT 8 4 12 13 6 15
ROOT
ATOM      1  C   UNL     1     -19.029 -14.361  16.267  1.00  0.00     0.184 C 
ENDROOT
BRANCH   1   2
ATOM      2  C   UNL     1     -19.354 -13.221  17.239  1.00  0.00     0.192 C 
BRANCH   2   3
ATOM      3  O   UNL     1     -20.135 -12.233  16.546  1.00  0.00    -0.394 OA
ATOM      4  H   UNL     1     -20.339 -12.667  15.691  1.00  0.00     0.210 HD
ENDBRANCH   2   3
ENDBRANCH   1   2
BRANCH   1   5
ATOM      5  C   UNL     1     -19.233 -15.776  16.860  1.00  0.00     0.227 C 
ATOM      6  C   UNL     1     -18.545 -16.027  18.178  1.00  0.00    -0.037 C 
ATOM      7  O   UNL     1     -18.704 -16.771  15.965  1.00  0.00    -0.450 OA
ATOM      8  C   UNL     1     -17.741 -17.078  18.026  1.00  0.00     0.193 C 
ATOM      9  C   UNL     1     -17.826 -17.570  16.643  1.00  0.00     0.373 C 
ATOM     10  O   UNL     1     -17.224 -18.513  16.154  1.00  0.00    -0.243 OA
ATOM     11  O   UNL     1     -18.817 -15.265  19.144  1.00  0.00    -0.870 OA
BRANCH   8  12
ATOM     12  O   UNL     1     -16.961 -17.586  19.030  1.00  0.00    -0.502 OA
ATOM     13  H   UNL     1     -16.413 -16.799  19.242  1.00  0.00     0.293 HD
ENDBRANCH   8  12
ENDBRANCH   1   5
BRANCH   1  14
ATOM     14  O   UNL     1     -19.830 -14.169  15.080  1.00  0.00    -0.387 OA
ATOM     15  H   UNL     1     -20.703 -14.572  15.335  1.00  0.00     0.211 HD
ENDBRANCH   1  14
TORSDOF 5
ENDMDL
MODEL 9
REMARK VINA RESULT:    -4.268      3.113      4.522
REMARK INTER + INTRA:          -5.429
REMARK INTER:                  -5.071
REMARK INTRA:                  -0.358
REMARK UNBOUND:                -0.288
REMARK SMILES O=C1O[C@H]([C@@H](O)CO)C([O-])=C1O
REMARK SMILES IDX 5 1 7 2 8 3 4 5 9 6 3 7 11 8 2 9 1 10 10 11 12 12 6 14
REMARK H PARENT 8 4 12 13 6 15
ROOT
ATOM      1  C   UNL     1     -16.986 -19.678  17.727  1.00  0.00     0.184 C 
ENDROOT
BRANCH   1   2
ATOM      2  C   UNL     1     -16.286 -20.505  16.642  1.00  0.00     0.192 C 
BRANCH   2   3
ATOM      3  O   UNL     1     -16.876 -20.190  15.370  1.00  0.00    -0.394 OA
ATOM      4  H   UNL     1     -16.176 -20.439  14.730  1.00  0.00     0.210 HD
ENDBRANCH   2   3
ENDBRANCH   1   2
BRANCH   1   5
ATOM      5  C   UNL     1     -16.900 -18.148  17.511  1.00  0.00     0.227 C 
ATOM      6  C   UNL     1     -17.430 -17.308  18.644  1.00  0.00    -0.037 C 
ATOM      7  O   UNL     1     -17.678 -17.764  16.363  1.00  0.00    -0.450 OA
ATOM      8  C   UNL     1     -18.385 -16.517  18.156  1.00  0.00     0.193 C 
ATOM      9  C   UNL     1     -18.557 -16.779  16.720  1.00  0.00     0.373 C 
ATOM     10  O   UNL     1     -19.344 -16.241  15.958  1.00  0.00    -0.243 OA
ATOM     11  O   UNL     1     -16.927 -17.469  19.788  1.00  0.00    -0.870 OA
BRANCH   8  12
ATOM     12  O   UNL     1     -19.084 -15.616  18.914  1.00  0.00    -0.502 OA
ATOM     13  H   UNL     1     -18.683 -14.776  18.601  1.00  0.00     0.293 HD
ENDBRANCH   8  12
ENDBRANCH   1   5
BRANCH   1  14
ATOM     14  O   UNL     1     -18.359 -20.122  17.800  1.00  0.00    -0.387 OA
ATOM     15  H   UNL     1     -18.752 -19.767  16.957  1.00  0.00     0.211 HD
ENDBRANCH   1  14
TORSDOF 5
ENDMDL
