MODEL 1
REMARK VINA RESULT:    -5.248      0.000      0.000
REMARK INTER + INTRA:          -6.608
REMARK INTER:                  -6.321
REMARK INTRA:                  -0.287
REMARK UNBOUND:                -0.287
REMARK SMILES O=C1O[C@H]([C@@H](O)CO)C([O-])=C1O
REMARK SMILES IDX 5 1 7 2 8 3 4 5 9 6 3 7 11 8 2 9 1 10 10 11 12 12 6 14
REMARK H PARENT 8 4 12 13 6 15
ROOT
ATOM      1  C   UNL     1     -19.704 -16.039  16.440  1.00  0.00     0.184 C 
ENDROOT
BRANCH   1   2
ATOM      2  C   UNL     1     -18.729 -17.029  17.088  1.00  0.00     0.192 C 
BRANCH   2   3
ATOM      3  O   UNL     1     -17.533 -16.323  17.458  1.00  0.00    -0.394 OA
ATOM      4  H   UNL     1     -17.820 -15.386  17.469  1.00  0.00     0.210 HD
ENDBRANCH   2   3
ENDBRANCH   1   2
BRANCH   1   5
ATOM      5  C   UNL     1     -19.063 -14.688  16.042  1.00  0.00     0.227 C 
ATOM      6  C   UNL     1     -19.300 -13.554  17.007  1.00  0.00    -0.037 C 
ATOM      7  O   UNL     1     -19.601 -14.232  14.788  1.00  0.00    -0.450 OA
ATOM      8  C   UNL     1     -19.884 -12.562  16.337  1.00  0.00     0.193 C 
ATOM      9  C   UNL     1     -20.079 -12.960  14.935  1.00  0.00     0.373 C 
ATOM     10  O   UNL     1     -20.587 -12.301  14.042  1.00  0.00    -0.243 OA
ATOM     11  O   UNL     1     -18.937 -13.708  18.204  1.00  0.00    -0.870 OA
BRANCH   8  12
ATOM     12  O   UNL     1     -20.241 -11.370  16.908  1.00  0.00    -0.502 OA
ATOM     13  H   UNL     1     -20.066 -11.570  17.853  1.00  0.00     0.293 HD
ENDBRANCH   8  12
ENDBRANCH   1   5
BRANCH   1  14
ATOM     14  O   UNL     1     -20.300 -16.694  15.297  1.00  0.00    -0.387 OA
ATOM     15  H   UNL     1     -21.226 -16.882  15.608  1.00  0.00     0.211 HD
ENDBRANCH   1  14
TORSDOF 5
ENDMDL
MODEL 2
REMARK VINA RESULT:    -5.192      1.617      4.727
REMARK INTER + INTRA:          -6.540
REMARK INTER:                  -6.218
REMARK INTRA:                  -0.322
REMARK UNBOUND:                -0.287
REMARK SMILES O=C1O[C@H]([C@@H](O)CO)C([O-])=C1O
REMARK SMILES IDX 5 1 7 2 8 3 4 5 9 6 3 7 11 8 2 9 1 10 10 11 12 12 6 14
REMARK H PARENT 8 4 12 13 6 15
ROOT
ATOM      1  C   UNL     1     -20.410 -10.920  15.455  1.00  0.00     0.184 C 
ENDROOT
BRANCH   1   2
ATOM      2  C   UNL     1     -20.279  -9.799  16.492  1.00  0.00     0.192 C 
BRANCH   2   3
ATOM      3  O   UNL     1     -19.316  -8.843  16.018  1.00  0.00    -0.394 OA
ATOM      4  H   UNL     1     -18.570  -9.404  15.719  1.00  0.00     0.210 HD
ENDBRANCH   2   3
ENDBRANCH   1   2
BRANCH   1   5
ATOM      5  C   UNL     1     -19.332 -12.023  15.575  1.00  0.00     0.227 C 
ATOM      6  C   UNL     1     -19.661 -13.324  14.889  1.00  0.00    -0.037 C 
ATOM      7  O   UNL     1     -19.128 -12.370  16.957  1.00  0.00    -0.450 OA
ATOM      8  C   UNL     1     -19.612 -14.293  15.801  1.00  0.00     0.193 C 
ATOM      9  C   UNL     1     -19.272 -13.720  17.112  1.00  0.00     0.373 C 
ATOM     10  O   UNL     1     -19.146 -14.316  18.170  1.00  0.00    -0.243 OA
ATOM     11  O   UNL     1     -19.912 -13.296  13.654  1.00  0.00    -0.870 OA
BRANCH   8  12
ATOM     12  O   UNL     1     -19.858 -15.611  15.521  1.00  0.00    -0.502 OA
ATOM     13  H   UNL     1     -20.830 -15.641  15.662  1.00  0.00     0.293 HD
ENDBRANCH   8  12
ENDBRANCH   1   5
BRANCH   1  14
ATOM     14  O   UNL     1     -21.741 -11.472  15.570  1.00  0.00    -0.387 OA
ATOM     15  H   UNL     1     -22.231 -11.024  14.828  1.00  0.00     0.211 HD
ENDBRANCH   1  14
TORSDOF 5
ENDMDL
MODEL 3
REMARK VINA RESULT:    -5.111      1.045      3.992
REMARK INTER + INTRA:          -6.443
REMARK INTER:                  -6.087
REMARK INTRA:                  -0.356
REMARK UNBOUND:                -0.287
REMARK SMILES O=C1O[C@H]([C@@H](O)CO)C([O-])=C1O
REMARK SMILES IDX 5 1 7 2 8 3 4 5 9 6 3 7 11 8 2 9 1 10 10 11 12 12 6 14
REMARK H PARENT 8 4 12 13 6 15
ROOT
ATOM      1  C   UNL     1     -19.850 -12.222  14.832  1.00  0.00     0.184 C 
ENDROOT
BRANCH   1   2
ATOM      2  C   UNL     1     -20.524 -10.862  15.041  1.00  0.00     0.192 C 
BRANCH   2   3
ATOM      3  O   UNL     1     -20.169 -10.366  16.342  1.00  0.00    -0.394 OA
ATOM      4  H   UNL     1     -19.202 -10.520  16.385  1.00  0.00     0.210 HD
ENDBRANCH   2   3
ENDBRANCH   1   2
BRANCH   1   5
ATOM      5  C   UNL     1     -20.239 -13.290  15.882  1.00  0.00     0.227 C 
ATOM      6  C   UNL     1     -19.166 -13.630  16.884  1.00  0.00    -0.037 C 
ATOM      7  O   UNL     1     -20.553 -14.535  15.232  1.00  0.00    -0.450 OA
ATOM      8  C   UNL     1     -18.937 -14.940  16.810  1.00  0.00     0.193 C 
ATOM      9  C   UNL     1     -19.802 -15.536  15.781  1.00  0.00     0.373 C 
ATOM     10  O   UNL     1     -19.854 -16.708  15.446  1.00  0.00    -0.243 OA
ATOM     11  O   UNL     1     -18.689 -12.696  17.582  1.00  0.00    -0.870 OA
BRANCH   8  12
ATOM     12  O   UNL     1     -18.017 -15.593  17.587  1.00  0.00    -0.502 OA
ATOM     13  H   UNL     1     -18.155 -15.134  18.444  1.00  0.00     0.293 HD
ENDBRANCH   8  12
ENDBRANCH   1   5
BRANCH   1  14
ATOM     14  O   UNL     1     -20.161 -12.665  13.492  1.00  0.00    -0.387 OA
ATOM     15  H   UNL     1     -19.418 -12.279  12.953  1.00  0.00     0.211 HD
ENDBRANCH   1  14
TORSDOF 5
ENDMDL
MODEL 4
REMARK VINA RESULT:    -5.015      1.435      3.047
REMARK INTER + INTRA:          -6.328
REMARK INTER:                  -5.989
REMARK INTRA:                  -0.339
REMARK UNBOUND:                -0.287
REMARK SMILES O=C1O[C@H]([C@@H](O)CO)C([O-])=C1O
REMARK SMILES IDX 5 1 7 2 8 3 4 5 9 6 3 7 11 8 2 9 1 10 10 11 12 12 6 14
REMARK H PARENT 8 4 12 13 6 15
ROOT
ATOM      1  C   UNL     1     -17.937 -17.183  17.885  1.00  0.00     0.184 C 
ENDROOT
BRANCH   1   2
ATOM      2  C   UNL     1     -16.847 -17.069  16.813  1.00  0.00     0.192 C 
BRANCH   2   3
ATOM      3  O   UNL     1     -16.972 -18.180  15.909  1.00  0.00    -0.394 OA
ATOM      4  H   UNL     1     -17.830 -18.012  15.464  1.00  0.00     0.210 HD
ENDBRANCH   2   3
ENDBRANCH   1   2
BRANCH   1   5
ATOM      5  C   UNL     1     -19.113 -16.194  17.698  1.00  0.00     0.227 C 
ATOM      6  C   UNL     1     -19.499 -15.914  16.269  1.00  0.00    -0.037 C 
ATOM      7  O   UNL     1     -18.777 -14.910  18.255  1.00  0.00    -0.450 OA
ATOM      8  C   UNL     1     -19.411 -14.600  16.071  1.00  0.00     0.193 C 
ATOM      9  C   UNL     1     -18.965 -13.943  17.308  1.00  0.00     0.373 C 
ATOM     10  O   UNL     1     -18.774 -12.750  17.485  1.00  0.00    -0.243 OA
ATOM     11  O   UNL     1     -19.820 -16.890  15.539  1.00  0.00    -0.870 OA
BRANCH   8  12
ATOM     12  O   UNL     1     -19.694 -13.993  14.876  1.00  0.00    -0.502 OA
ATOM     13  H   UNL     1     -20.512 -13.505  15.117  1.00  0.00     0.293 HD
ENDBRANCH   8  12
ENDBRANCH   1   5
BRANCH   1  14
ATOM     14  O   UNL     1     -18.399 -18.552  17.899  1.00  0.00    -0.387 OA
ATOM     15  H   UNL     1     -19.012 -18.571  18.683  1.00  0.00     0.211 HD
ENDBRANCH   1  14
TORSDOF 5
ENDMDL
MODEL 5
REMARK VINA RESULT:    -4.921      1.209      2.920
REMARK INTER + INTRA:          -6.215
REMARK INTER:                  -5.947
REMARK INTRA:                  -0.268
REMARK UNBOUND:                -0.287
REMARK SMILES O=C1O[C@H]([C@@H](O)CO)C([O-])=C1O
REMARK SMILES IDX 5 1 7 2 8 3 4 5 9 6 3 7 11 8 2 9 1 10 10 11 12 12 6 14
REMARK H PARENT 8 4 12 13 6 15
ROOT
ATOM      1  C   UNL     1     -18.953 -14.276  16.686  1.00  0.00     0.184 C 
ENDROOT
BRANCH   1   2
ATOM      2  C   UNL     1     -19.105 -15.782  16.443  1.00  0.00     0.192 C 
BRANCH   2   3
ATOM      3  O   UNL     1     -20.247 -16.000  15.598  1.00  0.00    -0.394 OA
ATOM      4  H   UNL     1     -20.656 -15.111  15.539  1.00  0.00     0.210 HD
ENDBRANCH   2   3
ENDBRANCH   1   2
BRANCH   1   5
ATOM      5  C   UNL     1     -20.120 -13.424  16.130  1.00  0.00     0.227 C 
ATOM      6  C   UNL     1     -19.886 -12.824  14.768  1.00  0.00    -0.037 C 
ATOM      7  O   UNL     1     -20.374 -12.303  16.996  1.00  0.00    -0.450 OA
ATOM      8  C   UNL     1     -20.029 -11.503  14.872  1.00  0.00     0.193 C 
ATOM      9  C   UNL     1     -20.343 -11.149  16.264  1.00  0.00     0.373 C 
ATOM     10  O   UNL     1     -20.534 -10.032  16.719  1.00  0.00    -0.243 OA
ATOM     11  O   UNL     1     -19.615 -13.602  13.814  1.00  0.00    -0.870 OA
BRANCH   8  12
ATOM     12  O   UNL     1     -19.887 -10.640  13.818  1.00  0.00    -0.502 OA
ATOM     13  H   UNL     1     -19.096 -10.136  14.111  1.00  0.00     0.293 HD
ENDBRANCH   8  12
ENDBRANCH   1   5
BRANCH   1  14
ATOM     14  O   UNL     1     -18.787 -14.074  18.107  1.00  0.00    -0.387 OA
ATOM     15  H   UNL     1     -19.074 -14.947  18.490  1.00  0.00     0.211 HD
ENDBRANCH   1  14
TORSDOF 5
ENDMDL
MODEL 6
REMARK VINA RESULT:    -4.675      1.675      3.008
REMARK INTER + INTRA:          -5.918
REMARK INTER:                  -5.351
REMARK INTRA:                  -0.567
REMARK UNBOUND:                -0.287
REMARK SMILES O=C1O[C@H]([C@@H](O)CO)C([O-])=C1O
REMARK SMILES IDX 5 1 7 2 8 3 4 5 9 6 3 7 11 8 2 9 1 10 10 11 12 12 6 14
REMARK H PARENT 8 4 12 13 6 15
ROOT
ATOM      1  C   UNL     1     -18.211 -16.069  18.862  1.00  0.00     0.184 C 
ENDROOT
BRANCH   1   2
ATOM      2  C   UNL     1     -18.103 -17.541  19.276  1.00  0.00     0.192 C 
BRANCH   2   3
ATOM      3  O   UNL     1     -19.397 -18.153  19.143  1.00  0.00    -0.394 OA
ATOM      4  H   UNL     1     -19.252 -18.840  18.460  1.00  0.00     0.210 HD
ENDBRANCH   2   3
ENDBRANCH   1   2
BRANCH   1   5
ATOM      5  C   UNL     1     -18.187 -15.838  17.332  1.00  0.00     0.227 C 
ATOM      6  C   UNL     1     -18.805 -14.546  16.865  1.00  0.00    -0.037 C 
ATOM      7  O   UNL     1     -18.929 -16.873  16.661  1.00  0.00    -0.450 OA
ATOM      8  C   UNL     1     -19.773 -14.844  15.999  1.00  0.00     0.193 C 
ATOM      9  C   UNL     1     -19.868 -16.303  15.848  1.00  0.00     0.373 C 
ATOM     10  O   UNL     1     -20.645 -16.925  15.140  1.00  0.00    -0.243 OA
ATOM     11  O   UNL     1     -18.347 -13.467  17.329  1.00  0.00    -0.870 OA
BRANCH   8  12
ATOM     12  O   UNL     1     -20.547 -13.902  15.374  1.00  0.00    -0.502 OA
ATOM     13  H   UNL     1     -19.877 -13.489  14.786  1.00  0.00     0.293 HD
ENDBRANCH   8  12
ENDBRANCH   1   5
BRANCH   1  14
ATOM     14  O   UNL     1     -19.415 -15.532  19.455  1.00  0.00    -0.387 OA
ATOM     15  H   UNL     1     -19.182 -15.482  20.421  1.00  0.00     0.211 HD
ENDBRANCH   1  14
TORSDOF 5
ENDMDL
MODEL 7
REMARK VINA RESULT:    -4.346      2.833      5.627
REMARK INTER + INTRA:          -5.521
REMARK INTER:                  -4.934
REMARK INTRA:                  -0.588
REMARK UNBOUND:                -0.287
REMARK SMILES O=C1O[C@H]([C@@H](O)CO)C([O-])=C1O
REMARK SMILES IDX 5 1 7 2 8 3 4 5 9 6 3 7 11 8 2 9 1 10 10 11 12 12 6 14
REMARK H PARENT 8 4 12 13 6 15
ROOT
ATOM      1  C   UNL     1     -19.063 -16.715  17.929  1.00  0.00     0.184 C 
ENDROOT
BRANCH   1   2
ATOM      2  C   UNL     1     -19.139 -15.842  16.672  1.00  0.00     0.192 C 
BRANCH   2   3
ATOM      3  O   UNL     1     -19.885 -16.546  15.666  1.00  0.00    -0.394 OA
ATOM      4  H   UNL     1     -20.299 -15.825  15.147  1.00  0.00     0.210 HD
ENDBRANCH   2   3
ENDBRANCH   1   2
BRANCH   1   5
ATOM      5  C   UNL     1     -18.224 -18.004  17.755  1.00  0.00     0.227 C 
ATOM      6  C   UNL     1     -17.288 -18.322  18.892  1.00  0.00    -0.037 C 
ATOM      7  O   UNL     1     -17.381 -17.895  16.594  1.00  0.00    -0.450 OA
ATOM      8  C   UNL     1     -16.055 -18.410  18.396  1.00  0.00     0.193 C 
ATOM      9  C   UNL     1     -16.086 -18.151  16.949  1.00  0.00     0.373 C 
ATOM     10  O   UNL     1     -15.140 -18.146  16.178  1.00  0.00    -0.243 OA
ATOM     11  O   UNL     1     -17.778 -18.448  20.047  1.00  0.00    -0.870 OA
BRANCH   8  12
ATOM     12  O   UNL     1     -14.951 -18.690  19.156  1.00  0.00    -0.502 OA
ATOM     13  H   UNL     1     -14.278 -18.807  18.450  1.00  0.00     0.293 HD
ENDBRANCH   8  12
ENDBRANCH   1   5
BRANCH   1  14
ATOM     14  O   UNL     1     -18.548 -15.895  19.003  1.00  0.00    -0.387 OA
ATOM     15  H   UNL     1     -19.362 -15.425  19.331  1.00  0.00     0.211 HD
ENDBRANCH   1  14
TORSDOF 5
ENDMDL
MODEL 8
REMARK VINA RESULT:    -4.252      3.136      4.553
REMARK INTER + INTRA:          -5.409
REMARK INTER:                  -5.042
REMARK INTRA:                  -0.367
REMARK UNBOUND:                -0.287
REMARK SMILES O=C1O[C@H]([C@@H](O)CO)C([O-])=C1O
REMARK SMILES IDX 5 1 7 2 8 3 4 5 9 6 3 7 11 8 2 9 1 10 10 11 12 12 6 14
REMARK H PARENT 8 4 12 13 6 15
ROOT
ATOM      1  C   UNL     1     -16.964 -19.670  17.681  1.00  0.00     0.184 C 
ENDROOT
BRANCH   1   2
ATOM      2  C   UNL     1     -16.218 -20.441  16.586  1.00  0.00     0.192 C 
BRANCH   2   3
ATOM      3  O   UNL     1     -16.838 -20.159  15.320  1.00  0.00    -0.394 OA
ATOM      4  H   UNL     1     -16.698 -19.195  15.212  1.00  0.00     0.210 HD
ENDBRANCH   2   3
ENDBRANCH   1   2
BRANCH   1   5
ATOM      5  C   UNL     1     -16.898 -18.131  17.528  1.00  0.00     0.227 C 
ATOM      6  C   UNL     1     -17.411 -17.344  18.707  1.00  0.00    -0.037 C 
ATOM      7  O   UNL     1     -17.705 -17.708  16.414  1.00  0.00    -0.450 OA
ATOM      8  C   UNL     1     -18.385 -16.545  18.273  1.00  0.00     0.193 C 
ATOM      9  C   UNL     1     -18.586 -16.749  16.831  1.00  0.00     0.373 C 
ATOM     10  O   UNL     1     -19.395 -16.188  16.109  1.00  0.00    -0.243 OA
ATOM     11  O   UNL     1     -16.881 -17.547  19.832  1.00  0.00    -0.870 OA
BRANCH   8  12
ATOM     12  O   UNL     1     -19.076 -15.684  19.083  1.00  0.00    -0.502 OA
ATOM     13  H   UNL     1     -18.970 -14.847  18.580  1.00  0.00     0.293 HD
ENDBRANCH   8  12
ENDBRANCH   1   5
BRANCH   1  14
ATOM     14  O   UNL     1     -18.331 -20.138  17.696  1.00  0.00    -0.387 OA
ATOM     15  H   UNL     1     -18.763 -19.582  16.992  1.00  0.00     0.211 HD
ENDBRANCH   1  14
TORSDOF 5
ENDMDL
MODEL 9
REMARK VINA RESULT:    -4.222      2.633      6.122
REMARK INTER + INTRA:          -5.373
REMARK INTER:                  -5.313
REMARK INTRA:                  -0.060
REMARK UNBOUND:                -0.287
REMARK SMILES O=C1O[C@H]([C@@H](O)CO)C([O-])=C1O
REMARK SMILES IDX 5 1 7 2 8 3 4 5 9 6 3 7 11 8 2 9 1 10 10 11 12 12 6 14
REMARK H PARENT 8 4 12 13 6 15
ROOT
ATOM      1  C   UNL     1     -18.857 -16.237  17.854  1.00  0.00     0.184 C 
ENDROOT
BRANCH   1   2
ATOM      2  C   UNL     1     -19.038 -15.648  16.450  1.00  0.00     0.192 C 
BRANCH   2   3
ATOM      3  O   UNL     1     -19.867 -16.535  15.681  1.00  0.00    -0.394 OA
ATOM      4  H   UNL     1     -20.358 -17.035  16.367  1.00  0.00     0.210 HD
ENDBRANCH   2   3
ENDBRANCH   1   2
BRANCH   1   5
ATOM      5  C   UNL     1     -17.494 -16.935  18.077  1.00  0.00     0.227 C 
ATOM      6  C   UNL     1     -17.296 -18.220  17.316  1.00  0.00    -0.037 C 
ATOM      7  O   UNL     1     -17.339 -17.292  19.462  1.00  0.00    -0.450 OA
ATOM      8  C   UNL     1     -17.028 -19.182  18.198  1.00  0.00     0.193 C 
ATOM      9  C   UNL     1     -17.042 -18.623  19.558  1.00  0.00     0.373 C 
ATOM     10  O   UNL     1     -16.842 -19.217  20.605  1.00  0.00    -0.243 OA
ATOM     11  O   UNL     1     -17.406 -18.190  16.061  1.00  0.00    -0.870 OA
BRANCH   8  12
ATOM     12  O   UNL     1     -16.791 -20.485  17.850  1.00  0.00    -0.502 OA
ATOM     13  H   UNL     1     -15.833 -20.549  18.056  1.00  0.00     0.293 HD
ENDBRANCH   8  12
ENDBRANCH   1   5
BRANCH   1  14
ATOM     14  O   UNL     1     -19.064 -15.171  18.808  1.00  0.00    -0.387 OA
ATOM     15  H   UNL     1     -18.744 -15.573  19.661  1.00  0.00     0.211 HD
ENDBRANCH   1  14
TORSDOF 5
ENDMDL
