MODEL 1
REMARK VINA RESULT:    -7.044      0.000      0.000
REMARK INTER + INTRA:          -9.056
REMARK INTER:                  -8.897
REMARK INTRA:                  -0.159
REMARK UNBOUND:                -0.159
REMARK SMILES O=C([O-])[C@H](O)Cc1ccc(O)c(O)c1
REMARK SMILES IDX 6 1 7 2 8 3 9 4 10 5 14 6 12 7 11 8 13 10 4 12 2 13 1 14
REMARK SMILES IDX 3 15 5 16
REMARK H PARENT 11 9 13 11 5 17
ROOT
ATOM      1  C   UNL     1     -18.400 -14.813  16.670  1.00  0.00     0.073 C 
ENDROOT
BRANCH   1   2
ATOM      2  C   UNL     1     -19.153 -13.562  16.265  1.00  0.00    -0.041 A 
ATOM      3  C   UNL     1     -19.507 -12.593  17.221  1.00  0.00     0.008 A 
ATOM      4  C   UNL     1     -20.197 -11.439  16.841  1.00  0.00     0.050 A 
ATOM      5  C   UNL     1     -20.518 -11.250  15.506  1.00  0.00     0.157 A 
ATOM      6  C   UNL     1     -19.487 -13.351  14.920  1.00  0.00     0.054 A 
ATOM      7  C   UNL     1     -20.161 -12.195  14.549  1.00  0.00     0.157 A 
BRANCH   5   8
ATOM      8  O   UNL     1     -21.186 -10.119  15.123  1.00  0.00    -0.504 OA
ATOM      9  H   UNL     1     -21.007 -10.065  14.164  1.00  0.00     0.293 HD
ENDBRANCH   5   8
BRANCH   7  10
ATOM     10  O   UNL     1     -20.482 -11.948  13.240  1.00  0.00    -0.504 OA
ATOM     11  H   UNL     1     -21.397 -12.264  13.123  1.00  0.00     0.293 HD
ENDBRANCH   7  10
ENDBRANCH   1   2
BRANCH   1  12
ATOM     12  C   UNL     1     -19.314 -16.021  16.873  1.00  0.00     0.164 C 
BRANCH  12  13
ATOM     13  C   UNL     1     -18.726 -17.005  17.931  1.00  0.00     0.070 C 
ATOM     14  O   UNL     1     -18.384 -16.428  19.012  1.00  0.00    -0.547 OA
ATOM     15  O   UNL     1     -18.648 -18.221  17.605  1.00  0.00    -0.547 OA
ENDBRANCH  12  13
BRANCH  12  16
ATOM     16  O   UNL     1     -19.456 -16.725  15.605  1.00  0.00    -0.387 OA
ATOM     17  H   UNL     1     -18.606 -17.233  15.568  1.00  0.00     0.211 HD
ENDBRANCH  12  16
ENDBRANCH   1  12
TORSDOF 6
ENDMDL
MODEL 2
REMARK VINA RESULT:    -6.405      1.028      2.190
REMARK INTER + INTRA:          -8.249
REMARK INTER:                  -8.268
REMARK INTRA:                   0.018
REMARK UNBOUND:                -0.159
REMARK SMILES O=C([O-])[C@H](O)Cc1ccc(O)c(O)c1
REMARK SMILES IDX 6 1 7 2 8 3 9 4 10 5 14 6 12 7 11 8 13 10 4 12 2 13 1 14
REMARK SMILES IDX 3 15 5 16
REMARK H PARENT 11 9 13 11 5 17
ROOT
ATOM      1  C   UNL     1     -18.753 -14.549  17.513  1.00  0.00     0.073 C 
ENDROOT
BRANCH   1   2
ATOM      2  C   UNL     1     -19.305 -13.478  16.594  1.00  0.00    -0.041 A 
ATOM      3  C   UNL     1     -19.413 -13.702  15.210  1.00  0.00     0.008 A 
ATOM      4  C   UNL     1     -19.928 -12.713  14.368  1.00  0.00     0.050 A 
ATOM      5  C   UNL     1     -20.347 -11.509  14.914  1.00  0.00     0.157 A 
ATOM      6  C   UNL     1     -19.735 -12.254  17.126  1.00  0.00     0.054 A 
ATOM      7  C   UNL     1     -20.257 -11.282  16.284  1.00  0.00     0.157 A 
BRANCH   5   8
ATOM      8  O   UNL     1     -20.860 -10.539  14.098  1.00  0.00    -0.504 OA
ATOM      9  H   UNL     1     -21.772 -10.847  13.926  1.00  0.00     0.293 HD
ENDBRANCH   5   8
BRANCH   7  10
ATOM     10  O   UNL     1     -20.706 -10.083  16.773  1.00  0.00    -0.504 OA
ATOM     11  H   UNL     1     -20.076  -9.823  17.470  1.00  0.00     0.293 HD
ENDBRANCH   7  10
ENDBRANCH   1   2
BRANCH   1  12
ATOM     12  C   UNL     1     -18.261 -15.786  16.761  1.00  0.00     0.164 C 
BRANCH  12  13
ATOM     13  C   UNL     1     -19.386 -16.860  16.639  1.00  0.00     0.070 C 
ATOM     14  O   UNL     1     -19.358 -17.718  17.577  1.00  0.00    -0.547 OA
ATOM     15  O   UNL     1     -20.165 -16.767  15.652  1.00  0.00    -0.547 OA
ENDBRANCH  12  13
BRANCH  12  16
ATOM     16  O   UNL     1     -17.138 -16.364  17.488  1.00  0.00    -0.387 OA
ATOM     17  H   UNL     1     -17.575 -17.121  17.954  1.00  0.00     0.211 HD
ENDBRANCH  12  16
ENDBRANCH   1  12
TORSDOF 6
ENDMDL
MODEL 3
REMARK VINA RESULT:    -6.181      1.209      5.799
REMARK INTER + INTRA:          -7.966
REMARK INTER:                  -7.809
REMARK INTRA:                  -0.157
REMARK UNBOUND:                -0.159
REMARK SMILES O=C([O-])[C@H](O)Cc1ccc(O)c(O)c1
REMARK SMILES IDX 6 1 7 2 8 3 9 4 10 5 14 6 12 7 11 8 13 10 4 12 2 13 1 14
REMARK SMILES IDX 3 15 5 16
REMARK H PARENT 11 9 13 11 5 17
ROOT
ATOM      1  C   UNL     1     -19.110 -12.921  16.747  1.00  0.00     0.073 C 
ENDROOT
BRANCH   1   2
ATOM      2  C   UNL     1     -19.024 -14.416  16.978  1.00  0.00    -0.041 A 
ATOM      3  C   UNL     1     -19.490 -15.323  16.010  1.00  0.00     0.008 A 
ATOM      4  C   UNL     1     -19.403 -16.701  16.226  1.00  0.00     0.050 A 
ATOM      5  C   UNL     1     -18.839 -17.167  17.404  1.00  0.00     0.157 A 
ATOM      6  C   UNL     1     -18.456 -14.909  18.162  1.00  0.00     0.054 A 
ATOM      7  C   UNL     1     -18.362 -16.279  18.364  1.00  0.00     0.157 A 
BRANCH   5   8
ATOM      8  O   UNL     1     -18.742 -18.514  17.621  1.00  0.00    -0.504 OA
ATOM      9  H   UNL     1     -18.006 -18.785  17.037  1.00  0.00     0.293 HD
ENDBRANCH   5   8
BRANCH   7  10
ATOM     10  O   UNL     1     -17.793 -16.794  19.498  1.00  0.00    -0.504 OA
ATOM     11  H   UNL     1     -17.678 -16.041  20.108  1.00  0.00     0.293 HD
ENDBRANCH   7  10
ENDBRANCH   1   2
BRANCH   1  12
ATOM     12  C   UNL     1     -20.416 -12.495  16.076  1.00  0.00     0.164 C 
BRANCH  12  13
ATOM     13  C   UNL     1     -20.172 -12.022  14.609  1.00  0.00     0.070 C 
ATOM     14  O   UNL     1     -20.158 -10.756  14.491  1.00  0.00    -0.547 OA
ATOM     15  O   UNL     1     -20.030 -12.917  13.732  1.00  0.00    -0.547 OA
ENDBRANCH  12  13
BRANCH  12  16
ATOM     16  O   UNL     1     -20.997 -11.393  16.832  1.00  0.00    -0.387 OA
ATOM     17  H   UNL     1     -20.388 -11.348  17.613  1.00  0.00     0.211 HD
ENDBRANCH  12  16
ENDBRANCH   1  12
TORSDOF 6
ENDMDL
MODEL 4
REMARK VINA RESULT:    -6.119      2.092      6.208
REMARK INTER + INTRA:          -7.888
REMARK INTER:                  -7.698
REMARK INTRA:                  -0.190
REMARK UNBOUND:                -0.159
REMARK SMILES O=C([O-])[C@H](O)Cc1ccc(O)c(O)c1
REMARK SMILES IDX 6 1 7 2 8 3 9 4 10 5 14 6 12 7 11 8 13 10 4 12 2 13 1 14
REMARK SMILES IDX 3 15 5 16
REMARK H PARENT 11 9 13 11 5 17
ROOT
ATOM      1  C   UNL     1     -18.932 -14.898  17.503  1.00  0.00     0.073 C 
ENDROOT
BRANCH   1   2
ATOM      2  C   UNL     1     -18.203 -16.165  17.904  1.00  0.00    -0.041 A 
ATOM      3  C   UNL     1     -18.573 -16.874  19.061  1.00  0.00     0.008 A 
ATOM      4  C   UNL     1     -17.900 -18.045  19.422  1.00  0.00     0.050 A 
ATOM      5  C   UNL     1     -16.871 -18.510  18.618  1.00  0.00     0.157 A 
ATOM      6  C   UNL     1     -17.159 -16.653  17.105  1.00  0.00     0.054 A 
ATOM      7  C   UNL     1     -16.505 -17.824  17.464  1.00  0.00     0.157 A 
BRANCH   5   8
ATOM      8  O   UNL     1     -16.213 -19.659  18.960  1.00  0.00    -0.504 OA
ATOM      9  H   UNL     1     -16.881 -20.160  19.468  1.00  0.00     0.293 HD
ENDBRANCH   5   8
BRANCH   7  10
ATOM     10  O   UNL     1     -15.496 -18.340  16.694  1.00  0.00    -0.504 OA
ATOM     11  H   UNL     1     -15.417 -17.750  15.922  1.00  0.00     0.293 HD
ENDBRANCH   7  10
ENDBRANCH   1   2
BRANCH   1  12
ATOM     12  C   UNL     1     -19.212 -14.820  16.002  1.00  0.00     0.164 C 
BRANCH  12  13
ATOM     13  C   UNL     1     -19.743 -13.410  15.597  1.00  0.00     0.070 C 
ATOM     14  O   UNL     1     -19.831 -13.255  14.337  1.00  0.00    -0.547 OA
ATOM     15  O   UNL     1     -20.006 -12.604  16.531  1.00  0.00    -0.547 OA
ENDBRANCH  12  13
BRANCH  12  16
ATOM     16  O   UNL     1     -20.219 -15.816  15.658  1.00  0.00    -0.387 OA
ATOM     17  H   UNL     1     -20.048 -15.940  14.689  1.00  0.00     0.211 HD
ENDBRANCH  12  16
ENDBRANCH   1  12
TORSDOF 6
ENDMDL
MODEL 5
REMARK VINA RESULT:    -6.083      2.333      6.539
REMARK INTER + INTRA:          -7.843
REMARK INTER:                  -7.643
REMARK INTRA:                  -0.200
REMARK UNBOUND:                -0.159
REMARK SMILES O=C([O-])[C@H](O)Cc1ccc(O)c(O)c1
REMARK SMILES IDX 6 1 7 2 8 3 9 4 10 5 14 6 12 7 11 8 13 10 4 12 2 13 1 14
REMARK SMILES IDX 3 15 5 16
REMARK H PARENT 11 9 13 11 5 17
ROOT
ATOM      1  C   UNL     1     -18.871 -15.303  17.539  1.00  0.00     0.073 C 
ENDROOT
BRANCH   1   2
ATOM      2  C   UNL     1     -17.905 -16.440  17.807  1.00  0.00    -0.041 A 
ATOM      3  C   UNL     1     -17.043 -16.906  16.799  1.00  0.00     0.008 A 
ATOM      4  C   UNL     1     -16.150 -17.950  17.054  1.00  0.00     0.050 A 
ATOM      5  C   UNL     1     -16.114 -18.517  18.319  1.00  0.00     0.157 A 
ATOM      6  C   UNL     1     -17.852 -17.026  19.080  1.00  0.00     0.054 A 
ATOM      7  C   UNL     1     -16.954 -18.055  19.328  1.00  0.00     0.157 A 
BRANCH   5   8
ATOM      8  O   UNL     1     -15.238 -19.534  18.580  1.00  0.00    -0.504 OA
ATOM      9  H   UNL     1     -14.674 -19.557  17.781  1.00  0.00     0.293 HD
ENDBRANCH   5   8
BRANCH   7  10
ATOM     10  O   UNL     1     -16.860 -18.635  20.566  1.00  0.00    -0.504 OA
ATOM     11  H   UNL     1     -17.149 -19.559  20.453  1.00  0.00     0.293 HD
ENDBRANCH   7  10
ENDBRANCH   1   2
BRANCH   1  12
ATOM     12  C   UNL     1     -19.189 -15.128  16.054  1.00  0.00     0.164 C 
BRANCH  12  13
ATOM     13  C   UNL     1     -19.547 -13.646  15.722  1.00  0.00     0.070 C 
ATOM     14  O   UNL     1     -19.457 -12.875  16.730  1.00  0.00    -0.547 OA
ATOM     15  O   UNL     1     -19.885 -13.388  14.535  1.00  0.00    -0.547 OA
ENDBRANCH  12  13
BRANCH  12  16
ATOM     16  O   UNL     1     -20.326 -15.973  15.711  1.00  0.00    -0.387 OA
ATOM     17  H   UNL     1     -20.405 -16.533  16.525  1.00  0.00     0.211 HD
ENDBRANCH  12  16
ENDBRANCH   1  12
TORSDOF 6
ENDMDL
MODEL 6
REMARK VINA RESULT:    -6.079      2.515      6.353
REMARK INTER + INTRA:          -7.837
REMARK INTER:                  -7.622
REMARK INTRA:                  -0.215
REMARK UNBOUND:                -0.159
REMARK SMILES O=C([O-])[C@H](O)Cc1ccc(O)c(O)c1
REMARK SMILES IDX 6 1 7 2 8 3 9 4 10 5 14 6 12 7 11 8 13 10 4 12 2 13 1 14
REMARK SMILES IDX 3 15 5 16
REMARK H PARENT 11 9 13 11 5 17
ROOT
ATOM      1  C   UNL     1     -18.946 -15.669  17.718  1.00  0.00     0.073 C 
ENDROOT
BRANCH   1   2
ATOM      2  C   UNL     1     -17.880 -16.696  18.042  1.00  0.00    -0.041 A 
ATOM      3  C   UNL     1     -17.749 -17.212  19.344  1.00  0.00     0.008 A 
ATOM      4  C   UNL     1     -16.767 -18.164  19.635  1.00  0.00     0.050 A 
ATOM      5  C   UNL     1     -15.930 -18.605  18.622  1.00  0.00     0.157 A 
ATOM      6  C   UNL     1     -17.023 -17.157  17.032  1.00  0.00     0.054 A 
ATOM      7  C   UNL     1     -16.059 -18.111  17.327  1.00  0.00     0.157 A 
BRANCH   5   8
ATOM      8  O   UNL     1     -14.972 -19.542  18.896  1.00  0.00    -0.504 OA
ATOM      9  H   UNL     1     -15.072 -20.187  18.168  1.00  0.00     0.293 HD
ENDBRANCH   5   8
BRANCH   7  10
ATOM     10  O   UNL     1     -15.221 -18.599  16.360  1.00  0.00    -0.504 OA
ATOM     11  H   UNL     1     -14.349 -18.701  16.785  1.00  0.00     0.293 HD
ENDBRANCH   7  10
ENDBRANCH   1   2
BRANCH   1  12
ATOM     12  C   UNL     1     -19.101 -15.423  16.217  1.00  0.00     0.164 C 
BRANCH  12  13
ATOM     13  C   UNL     1     -19.418 -13.924  15.918  1.00  0.00     0.070 C 
ATOM     14  O   UNL     1     -19.165 -13.157  16.902  1.00  0.00    -0.547 OA
ATOM     15  O   UNL     1     -19.882 -13.651  14.778  1.00  0.00    -0.547 OA
ENDBRANCH  12  13
BRANCH  12  16
ATOM     16  O   UNL     1     -20.197 -16.242  15.716  1.00  0.00    -0.387 OA
ATOM     17  H   UNL     1     -19.990 -17.120  16.128  1.00  0.00     0.211 HD
ENDBRANCH  12  16
ENDBRANCH   1  12
TORSDOF 6
ENDMDL
MODEL 7
REMARK VINA RESULT:    -6.049      1.134      5.396
REMARK INTER + INTRA:          -7.800
REMARK INTER:                  -7.727
REMARK INTRA:                  -0.073
REMARK UNBOUND:                -0.159
REMARK SMILES O=C([O-])[C@H](O)Cc1ccc(O)c(O)c1
REMARK SMILES IDX 6 1 7 2 8 3 9 4 10 5 14 6 12 7 11 8 13 10 4 12 2 13 1 14
REMARK SMILES IDX 3 15 5 16
REMARK H PARENT 11 9 13 11 5 17
ROOT
ATOM      1  C   UNL     1     -19.278 -12.478  16.850  1.00  0.00     0.073 C 
ENDROOT
BRANCH   1   2
ATOM      2  C   UNL     1     -19.173 -13.981  17.019  1.00  0.00    -0.041 A 
ATOM      3  C   UNL     1     -18.596 -14.537  18.174  1.00  0.00     0.008 A 
ATOM      4  C   UNL     1     -18.507 -15.923  18.326  1.00  0.00     0.050 A 
ATOM      5  C   UNL     1     -19.006 -16.748  17.330  1.00  0.00     0.157 A 
ATOM      6  C   UNL     1     -19.672 -14.832  16.023  1.00  0.00     0.054 A 
ATOM      7  C   UNL     1     -19.591 -16.208  16.188  1.00  0.00     0.157 A 
BRANCH   5   8
ATOM      8  O   UNL     1     -18.930 -18.106  17.474  1.00  0.00    -0.504 OA
ATOM      9  H   UNL     1     -18.562 -18.218  18.373  1.00  0.00     0.293 HD
ENDBRANCH   5   8
BRANCH   7  10
ATOM     10  O   UNL     1     -20.089 -17.069  15.245  1.00  0.00    -0.504 OA
ATOM     11  H   UNL     1     -20.588 -17.748  15.737  1.00  0.00     0.293 HD
ENDBRANCH   7  10
ENDBRANCH   1   2
BRANCH   1  12
ATOM     12  C   UNL     1     -20.548 -12.048  16.115  1.00  0.00     0.164 C 
BRANCH  12  13
ATOM     13  C   UNL     1     -20.237 -11.631  14.644  1.00  0.00     0.070 C 
ATOM     14  O   UNL     1     -19.985 -10.390  14.522  1.00  0.00    -0.547 OA
ATOM     15  O   UNL     1     -20.278 -12.537  13.768  1.00  0.00    -0.547 OA
ENDBRANCH  12  13
BRANCH  12  16
ATOM     16  O   UNL     1     -21.134 -10.909  16.811  1.00  0.00    -0.387 OA
ATOM     17  H   UNL     1     -20.799 -11.050  17.733  1.00  0.00     0.211 HD
ENDBRANCH  12  16
ENDBRANCH   1  12
TORSDOF 6
ENDMDL
MODEL 8
REMARK VINA RESULT:    -5.833      2.896      6.866
REMARK INTER + INTRA:          -7.527
REMARK INTER:                  -7.286
REMARK INTRA:                  -0.240
REMARK UNBOUND:                -0.159
REMARK SMILES O=C([O-])[C@H](O)Cc1ccc(O)c(O)c1
REMARK SMILES IDX 6 1 7 2 8 3 9 4 10 5 14 6 12 7 11 8 13 10 4 12 2 13 1 14
REMARK SMILES IDX 3 15 5 16
REMARK H PARENT 11 9 13 11 5 17
ROOT
ATOM      1  C   UNL     1     -17.600 -16.035  17.339  1.00  0.00     0.073 C 
ENDROOT
BRANCH   1   2
ATOM      2  C   UNL     1     -17.496 -17.401  17.987  1.00  0.00    -0.041 A 
ATOM      3  C   UNL     1     -17.527 -17.539  19.386  1.00  0.00     0.008 A 
ATOM      4  C   UNL     1     -17.437 -18.802  19.977  1.00  0.00     0.050 A 
ATOM      5  C   UNL     1     -17.330 -19.923  19.169  1.00  0.00     0.157 A 
ATOM      6  C   UNL     1     -17.388 -18.548  17.187  1.00  0.00     0.054 A 
ATOM      7  C   UNL     1     -17.312 -19.800  17.783  1.00  0.00     0.157 A 
BRANCH   5   8
ATOM      8  O   UNL     1     -17.249 -21.164  19.739  1.00  0.00    -0.504 OA
ATOM      9  H   UNL     1     -18.146 -21.304  20.103  1.00  0.00     0.293 HD
ENDBRANCH   5   8
BRANCH   7  10
ATOM     10  O   UNL     1     -17.227 -20.941  17.030  1.00  0.00    -0.504 OA
ATOM     11  H   UNL     1     -16.772 -20.688  16.206  1.00  0.00     0.293 HD
ENDBRANCH   7  10
ENDBRANCH   1   2
BRANCH   1  12
ATOM     12  C   UNL     1     -19.018 -15.464  17.376  1.00  0.00     0.164 C 
BRANCH  12  13
ATOM     13  C   UNL     1     -19.666 -15.464  15.957  1.00  0.00     0.070 C 
ATOM     14  O   UNL     1     -20.019 -16.624  15.572  1.00  0.00    -0.547 OA
ATOM     15  O   UNL     1     -19.756 -14.354  15.365  1.00  0.00    -0.547 OA
ENDBRANCH  12  13
BRANCH  12  16
ATOM     16  O   UNL     1     -18.961 -14.092  17.865  1.00  0.00    -0.387 OA
ATOM     17  H   UNL     1     -19.487 -13.616  17.173  1.00  0.00     0.211 HD
ENDBRANCH  12  16
ENDBRANCH   1  12
TORSDOF 6
ENDMDL
MODEL 9
REMARK VINA RESULT:    -5.785      1.720      2.594
REMARK INTER + INTRA:          -7.466
REMARK INTER:                  -7.228
REMARK INTRA:                  -0.238
REMARK UNBOUND:                -0.159
REMARK SMILES O=C([O-])[C@H](O)Cc1ccc(O)c(O)c1
REMARK SMILES IDX 6 1 7 2 8 3 9 4 10 5 14 6 12 7 11 8 13 10 4 12 2 13 1 14
REMARK SMILES IDX 3 15 5 16
REMARK H PARENT 11 9 13 11 5 17
ROOT
ATOM      1  C   UNL     1     -18.261 -15.937  18.319  1.00  0.00     0.073 C 
ENDROOT
BRANCH   1   2
ATOM      2  C   UNL     1     -18.927 -14.984  17.347  1.00  0.00    -0.041 A 
ATOM      3  C   UNL     1     -19.524 -15.460  16.167  1.00  0.00     0.008 A 
ATOM      4  C   UNL     1     -20.143 -14.577  15.277  1.00  0.00     0.050 A 
ATOM      5  C   UNL     1     -20.173 -13.224  15.577  1.00  0.00     0.157 A 
ATOM      6  C   UNL     1     -18.970 -13.612  17.632  1.00  0.00     0.054 A 
ATOM      7  C   UNL     1     -19.597 -12.743  16.749  1.00  0.00     0.157 A 
BRANCH   5   8
ATOM      8  O   UNL     1     -20.783 -12.354  14.716  1.00  0.00    -0.504 OA
ATOM      9  H   UNL     1     -20.743 -12.820  13.857  1.00  0.00     0.293 HD
ENDBRANCH   5   8
BRANCH   7  10
ATOM     10  O   UNL     1     -19.676 -11.400  17.007  1.00  0.00    -0.504 OA
ATOM     11  H   UNL     1     -18.776 -11.047  16.876  1.00  0.00     0.293 HD
ENDBRANCH   7  10
ENDBRANCH   1   2
BRANCH   1  12
ATOM     12  C   UNL     1     -18.044 -17.332  17.734  1.00  0.00     0.164 C 
BRANCH  12  13
ATOM     13  C   UNL     1     -18.593 -18.439  18.687  1.00  0.00     0.070 C 
ATOM     14  O   UNL     1     -19.726 -18.147  19.187  1.00  0.00    -0.547 OA
ATOM     15  O   UNL     1     -17.873 -19.459  18.859  1.00  0.00    -0.547 OA
ENDBRANCH  12  13
BRANCH  12  16
ATOM     16  O   UNL     1     -16.616 -17.546  17.540  1.00  0.00    -0.387 OA
ATOM     17  H   UNL     1     -16.546 -18.527  17.668  1.00  0.00     0.211 HD
ENDBRANCH  12  16
ENDBRANCH   1  12
TORSDOF 6
ENDMDL
