MODEL 1
REMARK VINA RESULT:    -7.071      0.000      0.000
REMARK INTER + INTRA:          -9.075
REMARK INTER:                  -8.931
REMARK INTRA:                  -0.144
REMARK UNBOUND:                -0.144
REMARK SMILES O=C([O-])[C@H](O)Cc1ccc(O)c(O)c1
REMARK SMILES IDX 6 1 7 2 8 3 9 4 10 5 14 6 12 7 11 8 13 10 4 12 2 13 1 14
REMARK SMILES IDX 3 15 5 16
REMARK H PARENT 11 9 13 11 5 17
ROOT
ATOM      1  C   UNL     1     -18.384 -14.870  16.678  1.00  0.00     0.073 C 
ENDROOT
BRANCH   1   2
ATOM      2  C   UNL     1     -19.127 -13.616  16.263  1.00  0.00    -0.041 A 
ATOM      3  C   UNL     1     -19.432 -12.615  17.202  1.00  0.00     0.008 A 
ATOM      4  C   UNL     1     -20.111 -11.458  16.812  1.00  0.00     0.050 A 
ATOM      5  C   UNL     1     -20.471 -11.299  15.483  1.00  0.00     0.157 A 
ATOM      6  C   UNL     1     -19.499 -13.435  14.923  1.00  0.00     0.054 A 
ATOM      7  C   UNL     1     -20.163 -12.277  14.542  1.00  0.00     0.157 A 
BRANCH   5   8
ATOM      8  O   UNL     1     -21.129 -10.166  15.091  1.00  0.00    -0.504 OA
ATOM      9  H   UNL     1     -20.422  -9.619  14.694  1.00  0.00     0.293 HD
ENDBRANCH   5   8
BRANCH   7  10
ATOM     10  O   UNL     1     -20.521 -12.059  13.238  1.00  0.00    -0.504 OA
ATOM     11  H   UNL     1     -20.028 -11.268  12.951  1.00  0.00     0.293 HD
ENDBRANCH   7  10
ENDBRANCH   1   2
BRANCH   1  12
ATOM     12  C   UNL     1     -19.311 -16.066  16.899  1.00  0.00     0.164 C 
BRANCH  12  13
ATOM     13  C   UNL     1     -18.715 -17.059  17.944  1.00  0.00     0.070 C 
ATOM     14  O   UNL     1     -18.431 -16.502  19.053  1.00  0.00    -0.547 OA
ATOM     15  O   UNL     1     -18.576 -18.260  17.584  1.00  0.00    -0.547 OA
ENDBRANCH  12  13
BRANCH  12  16
ATOM     16  O   UNL     1     -19.485 -16.768  15.633  1.00  0.00    -0.387 OA
ATOM     17  H   UNL     1     -18.596 -17.189  15.519  1.00  0.00     0.211 HD
ENDBRANCH  12  16
ENDBRANCH   1  12
TORSDOF 6
ENDMDL
MODEL 2
REMARK VINA RESULT:    -6.298      0.720      1.963
REMARK INTER + INTRA:          -8.099
REMARK INTER:                  -8.006
REMARK INTRA:                  -0.094
REMARK UNBOUND:                -0.144
REMARK SMILES O=C([O-])[C@H](O)Cc1ccc(O)c(O)c1
REMARK SMILES IDX 6 1 7 2 8 3 9 4 10 5 14 6 12 7 11 8 13 10 4 12 2 13 1 14
REMARK SMILES IDX 3 15 5 16
REMARK H PARENT 11 9 13 11 5 17
ROOT
ATOM      1  C   UNL     1     -18.474 -14.768  16.657  1.00  0.00     0.073 C 
ENDROOT
BRANCH   1   2
ATOM      2  C   UNL     1     -19.211 -13.555  16.125  1.00  0.00    -0.041 A 
ATOM      3  C   UNL     1     -19.412 -13.383  14.745  1.00  0.00     0.008 A 
ATOM      4  C   UNL     1     -20.097 -12.265  14.260  1.00  0.00     0.050 A 
ATOM      5  C   UNL     1     -20.590 -11.331  15.158  1.00  0.00     0.157 A 
ATOM      6  C   UNL     1     -19.717 -12.599  17.017  1.00  0.00     0.054 A 
ATOM      7  C   UNL     1     -20.408 -11.498  16.528  1.00  0.00     0.157 A 
BRANCH   5   8
ATOM      8  O   UNL     1     -21.268 -10.238  14.694  1.00  0.00    -0.504 OA
ATOM      9  H   UNL     1     -20.991 -10.180  13.758  1.00  0.00     0.293 HD
ENDBRANCH   5   8
BRANCH   7  10
ATOM     10  O   UNL     1     -20.935 -10.556  17.372  1.00  0.00    -0.504 OA
ATOM     11  H   UNL     1     -21.868 -10.807  17.507  1.00  0.00     0.293 HD
ENDBRANCH   7  10
ENDBRANCH   1   2
BRANCH   1  12
ATOM     12  C   UNL     1     -19.390 -15.972  16.880  1.00  0.00     0.164 C 
BRANCH  12  13
ATOM     13  C   UNL     1     -18.709 -17.043  17.787  1.00  0.00     0.070 C 
ATOM     14  O   UNL     1     -18.360 -18.086  17.148  1.00  0.00    -0.547 OA
ATOM     15  O   UNL     1     -18.592 -16.769  19.012  1.00  0.00    -0.547 OA
ENDBRANCH  12  13
BRANCH  12  16
ATOM     16  O   UNL     1     -19.696 -16.577  15.590  1.00  0.00    -0.387 OA
ATOM     17  H   UNL     1     -18.849 -17.052  15.390  1.00  0.00     0.211 HD
ENDBRANCH  12  16
ENDBRANCH   1  12
TORSDOF 6
ENDMDL
MODEL 3
REMARK VINA RESULT:    -6.131      2.056      6.183
REMARK INTER + INTRA:          -7.888
REMARK INTER:                  -7.697
REMARK INTRA:                  -0.191
REMARK UNBOUND:                -0.144
REMARK SMILES O=C([O-])[C@H](O)Cc1ccc(O)c(O)c1
REMARK SMILES IDX 6 1 7 2 8 3 9 4 10 5 14 6 12 7 11 8 13 10 4 12 2 13 1 14
REMARK SMILES IDX 3 15 5 16
REMARK H PARENT 11 9 13 11 5 17
ROOT
ATOM      1  C   UNL     1     -18.926 -14.879  17.482  1.00  0.00     0.073 C 
ENDROOT
BRANCH   1   2
ATOM      2  C   UNL     1     -18.215 -16.153  17.891  1.00  0.00    -0.041 A 
ATOM      3  C   UNL     1     -18.606 -16.859  19.042  1.00  0.00     0.008 A 
ATOM      4  C   UNL     1     -17.950 -18.036  19.411  1.00  0.00     0.050 A 
ATOM      5  C   UNL     1     -16.915 -18.512  18.621  1.00  0.00     0.157 A 
ATOM      6  C   UNL     1     -17.166 -16.651  17.105  1.00  0.00     0.054 A 
ATOM      7  C   UNL     1     -16.528 -17.829  17.472  1.00  0.00     0.157 A 
BRANCH   5   8
ATOM      8  O   UNL     1     -16.273 -19.667  18.970  1.00  0.00    -0.504 OA
ATOM      9  H   UNL     1     -16.906 -20.365  18.709  1.00  0.00     0.293 HD
ENDBRANCH   5   8
BRANCH   7  10
ATOM     10  O   UNL     1     -15.514 -18.354  16.715  1.00  0.00    -0.504 OA
ATOM     11  H   UNL     1     -15.280 -17.668  16.063  1.00  0.00     0.293 HD
ENDBRANCH   7  10
ENDBRANCH   1   2
BRANCH   1  12
ATOM     12  C   UNL     1     -19.217 -14.813  15.982  1.00  0.00     0.164 C 
BRANCH  12  13
ATOM     13  C   UNL     1     -19.752 -13.407  15.570  1.00  0.00     0.070 C 
ATOM     14  O   UNL     1     -19.819 -13.251  14.309  1.00  0.00    -0.547 OA
ATOM     15  O   UNL     1     -20.039 -12.605  16.500  1.00  0.00    -0.547 OA
ENDBRANCH  12  13
BRANCH  12  16
ATOM     16  O   UNL     1     -20.226 -15.813  15.653  1.00  0.00    -0.387 OA
ATOM     17  H   UNL     1     -19.660 -16.577  15.374  1.00  0.00     0.211 HD
ENDBRANCH  12  16
ENDBRANCH   1  12
TORSDOF 6
ENDMDL
MODEL 4
REMARK VINA RESULT:    -6.103      2.281      6.561
REMARK INTER + INTRA:          -7.853
REMARK INTER:                  -7.667
REMARK INTRA:                  -0.186
REMARK UNBOUND:                -0.144
REMARK SMILES O=C([O-])[C@H](O)Cc1ccc(O)c(O)c1
REMARK SMILES IDX 6 1 7 2 8 3 9 4 10 5 14 6 12 7 11 8 13 10 4 12 2 13 1 14
REMARK SMILES IDX 3 15 5 16
REMARK H PARENT 11 9 13 11 5 17
ROOT
ATOM      1  C   UNL     1     -18.806 -15.248  17.562  1.00  0.00     0.073 C 
ENDROOT
BRANCH   1   2
ATOM      2  C   UNL     1     -17.874 -16.416  17.817  1.00  0.00    -0.041 A 
ATOM      3  C   UNL     1     -17.010 -16.881  16.810  1.00  0.00     0.008 A 
ATOM      4  C   UNL     1     -16.148 -17.954  17.053  1.00  0.00     0.050 A 
ATOM      5  C   UNL     1     -16.145 -18.551  18.305  1.00  0.00     0.157 A 
ATOM      6  C   UNL     1     -17.855 -17.033  19.076  1.00  0.00     0.054 A 
ATOM      7  C   UNL     1     -16.987 -18.091  19.313  1.00  0.00     0.157 A 
BRANCH   5   8
ATOM      8  O   UNL     1     -15.300 -19.597  18.554  1.00  0.00    -0.504 OA
ATOM      9  H   UNL     1     -15.909 -20.346  18.714  1.00  0.00     0.293 HD
ENDBRANCH   5   8
BRANCH   7  10
ATOM     10  O   UNL     1     -16.927 -18.701  20.538  1.00  0.00    -0.504 OA
ATOM     11  H   UNL     1     -17.296 -19.595  20.412  1.00  0.00     0.293 HD
ENDBRANCH   7  10
ENDBRANCH   1   2
BRANCH   1  12
ATOM     12  C   UNL     1     -19.165 -15.083  16.085  1.00  0.00     0.164 C 
BRANCH  12  13
ATOM     13  C   UNL     1     -19.628 -13.626  15.774  1.00  0.00     0.070 C 
ATOM     14  O   UNL     1     -19.838 -13.424  14.536  1.00  0.00    -0.547 OA
ATOM     15  O   UNL     1     -19.730 -12.834  16.750  1.00  0.00    -0.547 OA
ENDBRANCH  12  13
BRANCH  12  16
ATOM     16  O   UNL     1     -20.249 -15.999  15.757  1.00  0.00    -0.387 OA
ATOM     17  H   UNL     1     -19.814 -16.878  15.901  1.00  0.00     0.211 HD
ENDBRANCH  12  16
ENDBRANCH   1  12
TORSDOF 6
ENDMDL
MODEL 5
REMARK VINA RESULT:    -6.076      2.503      6.331
REMARK INTER + INTRA:          -7.819
REMARK INTER:                  -7.615
REMARK INTRA:                  -0.203
REMARK UNBOUND:                -0.144
REMARK SMILES O=C([O-])[C@H](O)Cc1ccc(O)c(O)c1
REMARK SMILES IDX 6 1 7 2 8 3 9 4 10 5 14 6 12 7 11 8 13 10 4 12 2 13 1 14
REMARK SMILES IDX 3 15 5 16
REMARK H PARENT 11 9 13 11 5 17
ROOT
ATOM      1  C   UNL     1     -18.946 -15.681  17.756  1.00  0.00     0.073 C 
ENDROOT
BRANCH   1   2
ATOM      2  C   UNL     1     -17.870 -16.696  18.084  1.00  0.00    -0.041 A 
ATOM      3  C   UNL     1     -17.734 -17.207  19.386  1.00  0.00     0.008 A 
ATOM      4  C   UNL     1     -16.743 -18.147  19.681  1.00  0.00     0.050 A 
ATOM      5  C   UNL     1     -15.901 -18.584  18.670  1.00  0.00     0.157 A 
ATOM      6  C   UNL     1     -17.008 -17.151  17.075  1.00  0.00     0.054 A 
ATOM      7  C   UNL     1     -16.035 -18.096  17.373  1.00  0.00     0.157 A 
BRANCH   5   8
ATOM      8  O   UNL     1     -14.934 -19.510  18.947  1.00  0.00    -0.504 OA
ATOM      9  H   UNL     1     -15.444 -20.285  19.256  1.00  0.00     0.293 HD
ENDBRANCH   5   8
BRANCH   7  10
ATOM     10  O   UNL     1     -15.192 -18.578  16.408  1.00  0.00    -0.504 OA
ATOM     11  H   UNL     1     -15.765 -18.929  15.700  1.00  0.00     0.293 HD
ENDBRANCH   7  10
ENDBRANCH   1   2
BRANCH   1  12
ATOM     12  C   UNL     1     -19.082 -15.418  16.256  1.00  0.00     0.164 C 
BRANCH  12  13
ATOM     13  C   UNL     1     -19.479 -13.936  15.974  1.00  0.00     0.070 C 
ATOM     14  O   UNL     1     -19.345 -13.183  16.991  1.00  0.00    -0.547 OA
ATOM     15  O   UNL     1     -19.885 -13.660  14.813  1.00  0.00    -0.547 OA
ENDBRANCH  12  13
BRANCH  12  16
ATOM     16  O   UNL     1     -20.117 -16.291  15.716  1.00  0.00    -0.387 OA
ATOM     17  H   UNL     1     -20.905 -15.691  15.727  1.00  0.00     0.211 HD
ENDBRANCH  12  16
ENDBRANCH   1  12
TORSDOF 6
ENDMDL
MODEL 6
REMARK VINA RESULT:    -6.060      1.121      5.401
REMARK INTER + INTRA:          -7.798
REMARK INTER:                  -7.697
REMARK INTRA:                  -0.101
REMARK UNBOUND:                -0.144
REMARK SMILES O=C([O-])[C@H](O)Cc1ccc(O)c(O)c1
REMARK SMILES IDX 6 1 7 2 8 3 9 4 10 5 14 6 12 7 11 8 13 10 4 12 2 13 1 14
REMARK SMILES IDX 3 15 5 16
REMARK H PARENT 11 9 13 11 5 17
ROOT
ATOM      1  C   UNL     1     -19.235 -12.514  16.822  1.00  0.00     0.073 C 
ENDROOT
BRANCH   1   2
ATOM      2  C   UNL     1     -19.130 -14.018  16.978  1.00  0.00    -0.041 A 
ATOM      3  C   UNL     1     -18.490 -14.583  18.095  1.00  0.00     0.008 A 
ATOM      4  C   UNL     1     -18.403 -15.971  18.237  1.00  0.00     0.050 A 
ATOM      5  C   UNL     1     -18.966 -16.788  17.269  1.00  0.00     0.157 A 
ATOM      6  C   UNL     1     -19.694 -14.862  16.011  1.00  0.00     0.054 A 
ATOM      7  C   UNL     1     -19.613 -16.239  16.166  1.00  0.00     0.157 A 
BRANCH   5   8
ATOM      8  O   UNL     1     -18.892 -18.147  17.403  1.00  0.00    -0.504 OA
ATOM      9  H   UNL     1     -18.954 -18.469  16.482  1.00  0.00     0.293 HD
ENDBRANCH   5   8
BRANCH   7  10
ATOM     10  O   UNL     1     -20.172 -17.092  15.251  1.00  0.00    -0.504 OA
ATOM     11  H   UNL     1     -20.653 -16.529  14.616  1.00  0.00     0.293 HD
ENDBRANCH   7  10
ENDBRANCH   1   2
BRANCH   1  12
ATOM     12  C   UNL     1     -20.525 -12.074  16.129  1.00  0.00     0.164 C 
BRANCH  12  13
ATOM     13  C   UNL     1     -20.254 -11.620  14.661  1.00  0.00     0.070 C 
ATOM     14  O   UNL     1     -20.035 -10.371  14.560  1.00  0.00    -0.547 OA
ATOM     15  O   UNL     1     -20.291 -12.509  13.768  1.00  0.00    -0.547 OA
ENDBRANCH  12  13
BRANCH  12  16
ATOM     16  O   UNL     1     -21.099 -10.956  16.868  1.00  0.00    -0.387 OA
ATOM     17  H   UNL     1     -21.849 -11.399  17.341  1.00  0.00     0.211 HD
ENDBRANCH  12  16
ENDBRANCH   1  12
TORSDOF 6
ENDMDL
MODEL 7
REMARK VINA RESULT:    -6.014      1.453      5.563
REMARK INTER + INTRA:          -7.740
REMARK INTER:                  -7.650
REMARK INTRA:                  -0.090
REMARK UNBOUND:                -0.144
REMARK SMILES O=C([O-])[C@H](O)Cc1ccc(O)c(O)c1
REMARK SMILES IDX 6 1 7 2 8 3 9 4 10 5 14 6 12 7 11 8 13 10 4 12 2 13 1 14
REMARK SMILES IDX 3 15 5 16
REMARK H PARENT 11 9 13 11 5 17
ROOT
ATOM      1  C   UNL     1     -20.088 -14.627  15.608  1.00  0.00     0.073 C 
ENDROOT
BRANCH   1   2
ATOM      2  C   UNL     1     -19.312 -15.412  16.646  1.00  0.00    -0.041 A 
ATOM      3  C   UNL     1     -19.056 -14.868  17.917  1.00  0.00     0.008 A 
ATOM      4  C   UNL     1     -18.345 -15.598  18.873  1.00  0.00     0.050 A 
ATOM      5  C   UNL     1     -17.903 -16.875  18.560  1.00  0.00     0.157 A 
ATOM      6  C   UNL     1     -18.857 -16.705  16.350  1.00  0.00     0.054 A 
ATOM      7  C   UNL     1     -18.162 -17.429  17.309  1.00  0.00     0.157 A 
BRANCH   5   8
ATOM      8  O   UNL     1     -17.213 -17.600  19.491  1.00  0.00    -0.504 OA
ATOM      9  H   UNL     1     -17.581 -18.501  19.394  1.00  0.00     0.293 HD
ENDBRANCH   5   8
BRANCH   7  10
ATOM     10  O   UNL     1     -17.723 -18.702  17.060  1.00  0.00    -0.504 OA
ATOM     11  H   UNL     1     -17.617 -19.126  17.932  1.00  0.00     0.293 HD
ENDBRANCH   7  10
ENDBRANCH   1   2
BRANCH   1  12
ATOM     12  C   UNL     1     -19.470 -13.262  15.306  1.00  0.00     0.164 C 
BRANCH  12  13
ATOM     13  C   UNL     1     -20.239 -12.117  16.034  1.00  0.00     0.070 C 
ATOM     14  O   UNL     1     -19.650 -11.714  17.087  1.00  0.00    -0.547 OA
ATOM     15  O   UNL     1     -21.328 -11.740  15.523  1.00  0.00    -0.547 OA
ENDBRANCH  12  13
BRANCH  12  16
ATOM     16  O   UNL     1     -19.527 -13.025  13.869  1.00  0.00    -0.387 OA
ATOM     17  H   UNL     1     -19.745 -13.931  13.530  1.00  0.00     0.211 HD
ENDBRANCH  12  16
ENDBRANCH   1  12
TORSDOF 6
ENDMDL
MODEL 8
REMARK VINA RESULT:    -5.855      2.854      6.815
REMARK INTER + INTRA:          -7.539
REMARK INTER:                  -7.298
REMARK INTRA:                  -0.241
REMARK UNBOUND:                -0.144
REMARK SMILES O=C([O-])[C@H](O)Cc1ccc(O)c(O)c1
REMARK SMILES IDX 6 1 7 2 8 3 9 4 10 5 14 6 12 7 11 8 13 10 4 12 2 13 1 14
REMARK SMILES IDX 3 15 5 16
REMARK H PARENT 11 9 13 11 5 17
ROOT
ATOM      1  C   UNL     1     -17.614 -16.027  17.331  1.00  0.00     0.073 C 
ENDROOT
BRANCH   1   2
ATOM      2  C   UNL     1     -17.528 -17.391  17.988  1.00  0.00    -0.041 A 
ATOM      3  C   UNL     1     -17.548 -17.519  19.388  1.00  0.00     0.008 A 
ATOM      4  C   UNL     1     -17.476 -18.779  19.987  1.00  0.00     0.050 A 
ATOM      5  C   UNL     1     -17.396 -19.907  19.186  1.00  0.00     0.157 A 
ATOM      6  C   UNL     1     -17.448 -18.545  17.195  1.00  0.00     0.054 A 
ATOM      7  C   UNL     1     -17.389 -19.793  17.798  1.00  0.00     0.157 A 
BRANCH   5   8
ATOM      8  O   UNL     1     -17.332 -21.145  19.763  1.00  0.00    -0.504 OA
ATOM      9  H   UNL     1     -18.010 -21.101  20.467  1.00  0.00     0.293 HD
ENDBRANCH   5   8
BRANCH   7  10
ATOM     10  O   UNL     1     -17.333 -20.942  17.054  1.00  0.00    -0.504 OA
ATOM     11  H   UNL     1     -16.780 -20.733  16.277  1.00  0.00     0.293 HD
ENDBRANCH   7  10
ENDBRANCH   1   2
BRANCH   1  12
ATOM     12  C   UNL     1     -19.021 -15.432  17.373  1.00  0.00     0.164 C 
BRANCH  12  13
ATOM     13  C   UNL     1     -19.679 -15.433  15.957  1.00  0.00     0.070 C 
ATOM     14  O   UNL     1     -20.096 -16.582  15.604  1.00  0.00    -0.547 OA
ATOM     15  O   UNL     1     -19.713 -14.335  15.338  1.00  0.00    -0.547 OA
ENDBRANCH  12  13
BRANCH  12  16
ATOM     16  O   UNL     1     -18.939 -14.058  17.850  1.00  0.00    -0.387 OA
ATOM     17  H   UNL     1     -19.727 -14.011  18.450  1.00  0.00     0.211 HD
ENDBRANCH  12  16
ENDBRANCH   1  12
TORSDOF 6
ENDMDL
MODEL 9
REMARK VINA RESULT:    -5.496      3.242      7.539
REMARK INTER + INTRA:          -7.086
REMARK INTER:                  -6.906
REMARK INTRA:                  -0.180
REMARK UNBOUND:                -0.144
REMARK SMILES O=C([O-])[C@H](O)Cc1ccc(O)c(O)c1
REMARK SMILES IDX 6 1 7 2 8 3 9 4 10 5 14 6 12 7 11 8 13 10 4 12 2 13 1 14
REMARK SMILES IDX 3 15 5 16
REMARK H PARENT 11 9 13 11 5 17
ROOT
ATOM      1  C   UNL     1     -19.076 -17.480  18.158  1.00  0.00     0.073 C 
ENDROOT
BRANCH   1   2
ATOM      2  C   UNL     1     -18.079 -18.298  18.955  1.00  0.00    -0.041 A 
ATOM      3  C   UNL     1     -17.065 -17.671  19.699  1.00  0.00     0.008 A 
ATOM      4  C   UNL     1     -16.153 -18.430  20.438  1.00  0.00     0.050 A 
ATOM      5  C   UNL     1     -16.266 -19.811  20.439  1.00  0.00     0.157 A 
ATOM      6  C   UNL     1     -18.176 -19.697  18.970  1.00  0.00     0.054 A 
ATOM      7  C   UNL     1     -17.274 -20.442  19.716  1.00  0.00     0.157 A 
BRANCH   5   8
ATOM      8  O   UNL     1     -15.382 -20.562  21.164  1.00  0.00    -0.504 OA
ATOM      9  H   UNL     1     -15.875 -21.389  21.336  1.00  0.00     0.293 HD
ENDBRANCH   5   8
BRANCH   7  10
ATOM     10  O   UNL     1     -17.354 -21.809  19.771  1.00  0.00    -0.504 OA
ATOM     11  H   UNL     1     -18.135 -22.055  19.242  1.00  0.00     0.293 HD
ENDBRANCH   7  10
ENDBRANCH   1   2
BRANCH   1  12
ATOM     12  C   UNL     1     -18.445 -16.775  16.957  1.00  0.00     0.164 C 
BRANCH  12  13
ATOM     13  C   UNL     1     -19.509 -15.972  16.147  1.00  0.00     0.070 C 
ATOM     14  O   UNL     1     -20.301 -16.720  15.490  1.00  0.00    -0.547 OA
ATOM     15  O   UNL     1     -19.462 -14.714  16.223  1.00  0.00    -0.547 OA
ENDBRANCH  12  13
BRANCH  12  16
ATOM     16  O   UNL     1     -17.846 -17.775  16.083  1.00  0.00    -0.387 OA
ATOM     17  H   UNL     1     -18.096 -18.615  16.546  1.00  0.00     0.211 HD
ENDBRANCH  12  16
ENDBRANCH   1  12
TORSDOF 6
ENDMDL
