MODEL 1
REMARK VINA RESULT:    -7.368      0.000      0.000
REMARK INTER + INTRA:         -13.689
REMARK INTER:                 -12.321
REMARK INTRA:                  -1.368
REMARK UNBOUND:                -1.368
REMARK SMILES C[C@@H]1O[C@@H](OC[C@H]2O[C@@H](OCC(O)c3ccc(O)c(O)c3)[C@H](O)[C@@H](O)[C@@H]2O)[C@H](O)[C@H](O)[C@H]1O
REMARK SMILES IDX 7 1 26 2 24 3 22 4 9 5 8 6 6 7 5 8 4 9 2 10 32 11 3 12 30 13
REMARK SMILES IDX 28 14 1 15 33 16 31 18 29 20 27 22 25 24 10 26 11 27 12 28
REMARK SMILES IDX 14 29 21 30 15 31 19 32 16 33 17 34 20 35 18 37 13 39 23 41
REMARK H PARENT 33 17 31 19 29 21 27 23 25 25 20 36 18 38 13 40 23 42
ROOT
ATOM      1  C   UNL     1     -16.415 -19.041  16.421  1.00  0.00     0.178 C 
ATOM      2  C   UNL     1     -16.680 -20.351  17.177  1.00  0.00     0.177 C 
ATOM      3  C   UNL     1     -17.012 -20.049  18.637  1.00  0.00     0.179 C 
ATOM      4  C   UNL     1     -18.154 -19.043  18.724  1.00  0.00     0.202 C 
ATOM      5  C   UNL     1     -17.804 -17.790  17.900  1.00  0.00     0.282 C 
ATOM      6  O   UNL     1     -17.547 -18.152  16.541  1.00  0.00    -0.341 OA
ENDROOT
BRANCH   1   7
ATOM      7  C   UNL     1     -16.157 -19.322  14.932  1.00  0.00     0.198 C 
BRANCH   7   8
ATOM      8  O   UNL     1     -16.957 -20.438  14.522  1.00  0.00    -0.347 OA
BRANCH   8   9
ATOM      9  C   UNL     1     -16.422 -21.123  13.387  1.00  0.00     0.281 C 
ATOM     10  C   UNL     1     -18.421 -22.400  13.043  1.00  0.00     0.150 C 
ATOM     11  C   UNL     1     -17.718 -23.723  13.389  1.00  0.00     0.174 C 
ATOM     12  O   UNL     1     -17.497 -21.460  12.495  1.00  0.00    -0.344 OA
ATOM     13  C   UNL     1     -16.554 -23.444  14.350  1.00  0.00     0.179 C 
ATOM     14  C   UNL     1     -15.616 -22.378  13.783  1.00  0.00     0.202 C 
ATOM     15  C   UNL     1     -19.527 -22.600  12.012  1.00  0.00     0.041 C 
BRANCH  11  16
ATOM     16  O   UNL     1     -18.621 -24.668  13.997  1.00  0.00    -0.388 OA
ATOM     17  H   UNL     1     -18.128 -25.060  14.743  1.00  0.00     0.211 HD
ENDBRANCH  11  16
BRANCH  13  18
ATOM     18  O   UNL     1     -15.802 -24.653  14.563  1.00  0.00    -0.387 OA
ATOM     19  H   UNL     1     -15.994 -24.925  15.483  1.00  0.00     0.211 HD
ENDBRANCH  13  18
BRANCH  14  20
ATOM     20  O   UNL     1     -14.913 -22.926  12.654  1.00  0.00    -0.385 OA
ATOM     21  H   UNL     1     -14.393 -23.670  13.025  1.00  0.00     0.211 HD
ENDBRANCH  14  20
ENDBRANCH   8   9
ENDBRANCH   7   8
ENDBRANCH   1   7
BRANCH   2  22
ATOM     22  O   UNL     1     -15.544 -21.218  17.127  1.00  0.00    -0.387 OA
ATOM     23  H   UNL     1     -14.779 -20.630  16.958  1.00  0.00     0.211 HD
ENDBRANCH   2  22
BRANCH   3  24
ATOM     24  O   UNL     1     -17.370 -21.272  19.299  1.00  0.00    -0.387 OA
ATOM     25  H   UNL     1     -16.592 -21.858  19.189  1.00  0.00     0.211 HD
ENDBRANCH   3  24
BRANCH   5  26
ATOM     26  O   UNL     1     -18.948 -16.935  17.981  1.00  0.00    -0.347 OA
BRANCH  26  27
ATOM     27  C   UNL     1     -18.682 -15.547  17.747  1.00  0.00     0.200 C 
BRANCH  27  28
ATOM     28  C   UNL     1     -18.916 -15.046  16.305  1.00  0.00     0.170 C 
BRANCH  28  29
ATOM     29  C   UNL     1     -19.436 -13.633  16.109  1.00  0.00    -0.013 A 
ATOM     30  C   UNL     1     -19.668 -13.185  14.794  1.00  0.00     0.056 A 
ATOM     31  C   UNL     1     -19.665 -12.736  17.166  1.00  0.00     0.010 A 
ATOM     32  C   UNL     1     -20.147 -11.901  14.559  1.00  0.00     0.157 A 
ATOM     33  C   UNL     1     -20.127 -11.437  16.922  1.00  0.00     0.050 A 
ATOM     34  C   UNL     1     -20.365 -11.031  15.619  1.00  0.00     0.157 A 
BRANCH  32  35
ATOM     35  O   UNL     1     -20.442 -11.464  13.297  1.00  0.00    -0.504 OA
ATOM     36  H   UNL     1     -20.079 -12.124  12.661  1.00  0.00     0.293 HD
ENDBRANCH  32  35
BRANCH  34  37
ATOM     37  O   UNL     1     -20.825  -9.767  15.387  1.00  0.00    -0.504 OA
ATOM     38  H   UNL     1     -20.300  -9.453  14.623  1.00  0.00     0.293 HD
ENDBRANCH  34  37
ENDBRANCH  28  29
BRANCH  28  39
ATOM     39  O   UNL     1     -19.753 -15.970  15.604  1.00  0.00    -0.386 OA
ATOM     40  H   UNL     1     -19.650 -15.764  14.649  1.00  0.00     0.211 HD
ENDBRANCH  28  39
ENDBRANCH  27  28
ENDBRANCH  26  27
ENDBRANCH   5  26
BRANCH   4  41
ATOM     41  O   UNL     1     -18.382 -18.719  20.105  1.00  0.00    -0.385 OA
ATOM     42  H   UNL     1     -17.672 -19.179  20.597  1.00  0.00     0.211 HD
ENDBRANCH   4  41
TORSDOF 16
ENDMDL
MODEL 2
REMARK VINA RESULT:    -7.320      2.472      3.748
REMARK INTER + INTRA:         -13.608
REMARK INTER:                 -12.342
REMARK INTRA:                  -1.266
REMARK UNBOUND:                -1.368
REMARK SMILES C[C@@H]1O[C@@H](OC[C@H]2O[C@@H](OCC(O)c3ccc(O)c(O)c3)[C@H](O)[C@@H](O)[C@@H]2O)[C@H](O)[C@H](O)[C@H]1O
REMARK SMILES IDX 7 1 26 2 24 3 22 4 9 5 8 6 6 7 5 8 4 9 2 10 32 11 3 12 30 13
REMARK SMILES IDX 28 14 1 15 33 16 31 18 29 20 27 22 25 24 10 26 11 27 12 28
REMARK SMILES IDX 14 29 21 30 15 31 19 32 16 33 17 34 20 35 18 37 13 39 23 41
REMARK H PARENT 33 17 31 19 29 21 27 23 25 25 20 36 18 38 13 40 23 42
ROOT
ATOM      1  C   UNL     1     -16.325 -19.002  16.436  1.00  0.00     0.178 C 
ATOM      2  C   UNL     1     -16.575 -20.323  17.178  1.00  0.00     0.177 C 
ATOM      3  C   UNL     1     -16.946 -20.039  18.632  1.00  0.00     0.179 C 
ATOM      4  C   UNL     1     -18.112 -19.061  18.701  1.00  0.00     0.202 C 
ATOM      5  C   UNL     1     -17.774 -17.794  17.893  1.00  0.00     0.282 C 
ATOM      6  O   UNL     1     -17.479 -18.140  16.538  1.00  0.00    -0.341 OA
ENDROOT
BRANCH   1   7
ATOM      7  C   UNL     1     -16.028 -19.266  14.952  1.00  0.00     0.198 C 
BRANCH   7   8
ATOM      8  O   UNL     1     -14.615 -19.166  14.734  1.00  0.00    -0.347 OA
BRANCH   8   9
ATOM      9  C   UNL     1     -14.038 -20.377  14.239  1.00  0.00     0.281 C 
ATOM     10  C   UNL     1     -11.992 -20.056  15.447  1.00  0.00     0.150 C 
ATOM     11  C   UNL     1     -11.177 -19.876  14.155  1.00  0.00     0.174 C 
ATOM     12  O   UNL     1     -13.126 -20.895  15.221  1.00  0.00    -0.344 OA
ATOM     13  C   UNL     1     -12.088 -19.316  13.053  1.00  0.00     0.179 C 
ATOM     14  C   UNL     1     -13.336 -20.181  12.878  1.00  0.00     0.202 C 
ATOM     15  C   UNL     1     -11.165 -20.705  16.551  1.00  0.00     0.041 C 
BRANCH  11  16
ATOM     16  O   UNL     1     -10.059 -18.986  14.347  1.00  0.00    -0.388 OA
ATOM     17  H   UNL     1      -9.724 -19.175  15.245  1.00  0.00     0.211 HD
ENDBRANCH  11  16
BRANCH  13  18
ATOM     18  O   UNL     1     -11.372 -19.281  11.805  1.00  0.00    -0.387 OA
ATOM     19  H   UNL     1     -10.504 -19.695  11.987  1.00  0.00     0.211 HD
ENDBRANCH  13  18
BRANCH  14  20
ATOM     20  O   UNL     1     -12.953 -21.442  12.301  1.00  0.00    -0.385 OA
ATOM     21  H   UNL     1     -13.763 -21.765  11.855  1.00  0.00     0.211 HD
ENDBRANCH  14  20
ENDBRANCH   8   9
ENDBRANCH   7   8
ENDBRANCH   1   7
BRANCH   2  22
ATOM     22  O   UNL     1     -15.419 -21.163  17.147  1.00  0.00    -0.387 OA
ATOM     23  H   UNL     1     -14.663 -20.566  17.328  1.00  0.00     0.211 HD
ENDBRANCH   2  22
BRANCH   3  24
ATOM     24  O   UNL     1     -17.289 -21.275  19.278  1.00  0.00    -0.387 OA
ATOM     25  H   UNL     1     -17.510 -21.890  18.549  1.00  0.00     0.211 HD
ENDBRANCH   3  24
BRANCH   5  26
ATOM     26  O   UNL     1     -18.939 -16.966  17.955  1.00  0.00    -0.347 OA
BRANCH  26  27
ATOM     27  C   UNL     1     -18.701 -15.571  17.730  1.00  0.00     0.200 C 
BRANCH  27  28
ATOM     28  C   UNL     1     -18.934 -15.068  16.289  1.00  0.00     0.170 C 
BRANCH  28  29
ATOM     29  C   UNL     1     -19.449 -13.653  16.095  1.00  0.00    -0.013 A 
ATOM     30  C   UNL     1     -19.686 -13.203  14.781  1.00  0.00     0.056 A 
ATOM     31  C   UNL     1     -19.670 -12.754  17.153  1.00  0.00     0.010 A 
ATOM     32  C   UNL     1     -20.160 -11.918  14.549  1.00  0.00     0.157 A 
ATOM     33  C   UNL     1     -20.128 -11.454  16.912  1.00  0.00     0.050 A 
ATOM     34  C   UNL     1     -20.370 -11.047  15.610  1.00  0.00     0.157 A 
BRANCH  32  35
ATOM     35  O   UNL     1     -20.460 -11.480  13.287  1.00  0.00    -0.504 OA
ATOM     36  H   UNL     1     -19.771 -10.825  13.028  1.00  0.00     0.293 HD
ENDBRANCH  32  35
BRANCH  34  37
ATOM     37  O   UNL     1     -20.826  -9.781  15.379  1.00  0.00    -0.504 OA
ATOM     38  H   UNL     1     -20.977  -9.410  16.271  1.00  0.00     0.293 HD
ENDBRANCH  34  37
ENDBRANCH  28  29
BRANCH  28  39
ATOM     39  O   UNL     1     -19.775 -15.988  15.587  1.00  0.00    -0.386 OA
ATOM     40  H   UNL     1     -20.384 -16.369  16.256  1.00  0.00     0.211 HD
ENDBRANCH  28  39
ENDBRANCH  27  28
ENDBRANCH  26  27
ENDBRANCH   5  26
BRANCH   4  41
ATOM     41  O   UNL     1     -18.378 -18.752  20.079  1.00  0.00    -0.385 OA
ATOM     42  H   UNL     1     -19.350 -18.807  20.171  1.00  0.00     0.211 HD
ENDBRANCH   4  41
TORSDOF 16
ENDMDL
MODEL 3
REMARK VINA RESULT:    -7.289      2.477      3.803
REMARK INTER + INTRA:         -13.557
REMARK INTER:                 -12.332
REMARK INTRA:                  -1.224
REMARK UNBOUND:                -1.368
REMARK SMILES C[C@@H]1O[C@@H](OC[C@H]2O[C@@H](OCC(O)c3ccc(O)c(O)c3)[C@H](O)[C@@H](O)[C@@H]2O)[C@H](O)[C@H](O)[C@H]1O
REMARK SMILES IDX 7 1 26 2 24 3 22 4 9 5 8 6 6 7 5 8 4 9 2 10 32 11 3 12 30 13
REMARK SMILES IDX 28 14 1 15 33 16 31 18 29 20 27 22 25 24 10 26 11 27 12 28
REMARK SMILES IDX 14 29 21 30 15 31 19 32 16 33 17 34 20 35 18 37 13 39 23 41
REMARK H PARENT 33 17 31 19 29 21 27 23 25 25 20 36 18 38 13 40 23 42
ROOT
ATOM      1  C   UNL     1     -16.438 -19.073  16.537  1.00  0.00     0.178 C 
ATOM      2  C   UNL     1     -16.784 -20.398  17.232  1.00  0.00     0.177 C 
ATOM      3  C   UNL     1     -17.195 -20.132  18.679  1.00  0.00     0.179 C 
ATOM      4  C   UNL     1     -18.310 -19.095  18.732  1.00  0.00     0.202 C 
ATOM      5  C   UNL     1     -17.876 -17.828  17.972  1.00  0.00     0.282 C 
ATOM      6  O   UNL     1     -17.549 -18.154  16.620  1.00  0.00    -0.341 OA
ENDROOT
BRANCH   1   7
ATOM      7  C   UNL     1     -16.098 -19.314  15.057  1.00  0.00     0.198 C 
BRANCH   7   8
ATOM      8  O   UNL     1     -14.742 -19.766  14.958  1.00  0.00    -0.347 OA
BRANCH   8   9
ATOM      9  C   UNL     1     -13.792 -18.778  15.365  1.00  0.00     0.281 C 
ATOM     10  C   UNL     1     -12.075 -19.640  13.931  1.00  0.00     0.150 C 
ATOM     11  C   UNL     1     -11.201 -20.069  15.122  1.00  0.00     0.174 C 
ATOM     12  O   UNL     1     -12.891 -18.519  14.276  1.00  0.00    -0.344 OA
ATOM     13  C   UNL     1     -12.099 -20.371  16.330  1.00  0.00     0.179 C 
ATOM     14  C   UNL     1     -13.022 -19.191  16.637  1.00  0.00     0.202 C 
ATOM     15  C   UNL     1     -11.231 -19.230  12.729  1.00  0.00     0.041 C 
BRANCH  11  16
ATOM     16  O   UNL     1     -10.411 -21.235  14.813  1.00  0.00    -0.388 OA
ATOM     17  H   UNL     1      -9.904 -21.004  14.011  1.00  0.00     0.211 HD
ENDBRANCH  11  16
BRANCH  13  18
ATOM     18  O   UNL     1     -11.283 -20.631  17.486  1.00  0.00    -0.387 OA
ATOM     19  H   UNL     1     -11.787 -20.281  18.248  1.00  0.00     0.211 HD
ENDBRANCH  13  18
BRANCH  14  20
ATOM     20  O   UNL     1     -12.233 -18.102  17.148  1.00  0.00    -0.385 OA
ATOM     21  H   UNL     1     -11.330 -18.471  17.235  1.00  0.00     0.211 HD
ENDBRANCH  14  20
ENDBRANCH   8   9
ENDBRANCH   7   8
ENDBRANCH   1   7
BRANCH   2  22
ATOM     22  O   UNL     1     -15.673 -21.296  17.220  1.00  0.00    -0.387 OA
ATOM     23  H   UNL     1     -15.095 -20.981  16.494  1.00  0.00     0.211 HD
ENDBRANCH   2  22
BRANCH   3  24
ATOM     24  O   UNL     1     -17.626 -21.364  19.277  1.00  0.00    -0.387 OA
ATOM     25  H   UNL     1     -16.836 -21.713  19.739  1.00  0.00     0.211 HD
ENDBRANCH   3  24
BRANCH   5  26
ATOM     26  O   UNL     1     -18.999 -16.942  18.014  1.00  0.00    -0.347 OA
BRANCH  26  27
ATOM     27  C   UNL     1     -18.689 -15.564  17.771  1.00  0.00     0.200 C 
BRANCH  27  28
ATOM     28  C   UNL     1     -18.907 -15.065  16.326  1.00  0.00     0.170 C 
BRANCH  28  29
ATOM     29  C   UNL     1     -19.428 -13.654  16.122  1.00  0.00    -0.013 A 
ATOM     30  C   UNL     1     -19.663 -13.215  14.804  1.00  0.00     0.056 A 
ATOM     31  C   UNL     1     -19.657 -12.750  17.173  1.00  0.00     0.010 A 
ATOM     32  C   UNL     1     -20.144 -11.933  14.562  1.00  0.00     0.157 A 
ATOM     33  C   UNL     1     -20.120 -11.454  16.922  1.00  0.00     0.050 A 
ATOM     34  C   UNL     1     -20.361 -11.056  15.617  1.00  0.00     0.157 A 
BRANCH  32  35
ATOM     35  O   UNL     1     -20.442 -11.505  13.297  1.00  0.00    -0.504 OA
ATOM     36  H   UNL     1     -20.712 -10.559  13.358  1.00  0.00     0.293 HD
ENDBRANCH  32  35
BRANCH  34  37
ATOM     37  O   UNL     1     -20.822  -9.794  15.377  1.00  0.00    -0.504 OA
ATOM     38  H   UNL     1     -20.074  -9.211  15.616  1.00  0.00     0.293 HD
ENDBRANCH  34  37
ENDBRANCH  28  29
BRANCH  28  39
ATOM     39  O   UNL     1     -19.733 -15.993  15.615  1.00  0.00    -0.386 OA
ATOM     40  H   UNL     1     -20.468 -16.226  16.222  1.00  0.00     0.211 HD
ENDBRANCH  28  39
ENDBRANCH  27  28
ENDBRANCH  26  27
ENDBRANCH   5  26
BRANCH   4  41
ATOM     41  O   UNL     1     -18.612 -18.808  20.107  1.00  0.00    -0.385 OA
ATOM     42  H   UNL     1     -19.588 -18.776  20.154  1.00  0.00     0.211 HD
ENDBRANCH   4  41
TORSDOF 16
ENDMDL
MODEL 4
REMARK VINA RESULT:    -7.240      3.120      5.836
REMARK INTER + INTRA:         -13.475
REMARK INTER:                 -12.117
REMARK INTRA:                  -1.358
REMARK UNBOUND:                -1.368
REMARK SMILES C[C@@H]1O[C@@H](OC[C@H]2O[C@@H](OCC(O)c3ccc(O)c(O)c3)[C@H](O)[C@@H](O)[C@@H]2O)[C@H](O)[C@H](O)[C@H]1O
REMARK SMILES IDX 7 1 26 2 24 3 22 4 9 5 8 6 6 7 5 8 4 9 2 10 32 11 3 12 30 13
REMARK SMILES IDX 28 14 1 15 33 16 31 18 29 20 27 22 25 24 10 26 11 27 12 28
REMARK SMILES IDX 14 29 21 30 15 31 19 32 16 33 17 34 20 35 18 37 13 39 23 41
REMARK H PARENT 33 17 31 19 29 21 27 23 25 25 20 36 18 38 13 40 23 42
ROOT
ATOM      1  C   UNL     1     -17.074 -19.668  19.651  1.00  0.00     0.178 C 
ATOM      2  C   UNL     1     -16.296 -20.439  18.574  1.00  0.00     0.177 C 
ATOM      3  C   UNL     1     -16.815 -20.060  17.189  1.00  0.00     0.179 C 
ATOM      4  C   UNL     1     -16.788 -18.547  17.008  1.00  0.00     0.202 C 
ATOM      5  C   UNL     1     -17.558 -17.873  18.159  1.00  0.00     0.282 C 
ATOM      6  O   UNL     1     -16.987 -18.245  19.415  1.00  0.00    -0.341 OA
ENDROOT
BRANCH   1   7
ATOM      7  C   UNL     1     -16.512 -19.978  21.047  1.00  0.00     0.198 C 
BRANCH   7   8
ATOM      8  O   UNL     1     -15.101 -20.205  20.942  1.00  0.00    -0.347 OA
BRANCH   8   9
ATOM      9  C   UNL     1     -14.321 -19.077  21.348  1.00  0.00     0.281 C 
ATOM     10  C   UNL     1     -12.781 -19.313  19.525  1.00  0.00     0.150 C 
ATOM     11  C   UNL     1     -11.616 -19.667  20.465  1.00  0.00     0.174 C 
ATOM     12  O   UNL     1     -13.731 -18.474  20.185  1.00  0.00    -0.344 OA
ATOM     13  C   UNL     1     -12.170 -20.325  21.737  1.00  0.00     0.179 C 
ATOM     14  C   UNL     1     -13.243 -19.450  22.387  1.00  0.00     0.202 C 
ATOM     15  C   UNL     1     -12.301 -18.564  18.287  1.00  0.00     0.041 C 
BRANCH  11  16
ATOM     16  O   UNL     1     -10.674 -20.560  19.839  1.00  0.00    -0.388 OA
ATOM     17  H   UNL     1     -10.277 -20.050  19.106  1.00  0.00     0.211 HD
ENDBRANCH  11  16
BRANCH  13  18
ATOM     18  O   UNL     1     -11.104 -20.525  22.682  1.00  0.00    -0.387 OA
ATOM     19  H   UNL     1     -11.540 -20.745  23.529  1.00  0.00     0.211 HD
ENDBRANCH  13  18
BRANCH  14  20
ATOM     20  O   UNL     1     -12.618 -18.276  22.937  1.00  0.00    -0.385 OA
ATOM     21  H   UNL     1     -13.220 -17.541  22.697  1.00  0.00     0.211 HD
ENDBRANCH  14  20
ENDBRANCH   8   9
ENDBRANCH   7   8
ENDBRANCH   1   7
BRANCH   2  22
ATOM     22  O   UNL     1     -16.427 -21.851  18.752  1.00  0.00    -0.387 OA
ATOM     23  H   UNL     1     -16.412 -22.226  17.847  1.00  0.00     0.211 HD
ENDBRANCH   2  22
BRANCH   3  24
ATOM     24  O   UNL     1     -16.001 -20.699  16.193  1.00  0.00    -0.387 OA
ATOM     25  H   UNL     1     -16.620 -20.935  15.472  1.00  0.00     0.211 HD
ENDBRANCH   3  24
BRANCH   5  26
ATOM     26  O   UNL     1     -17.426 -16.464  17.948  1.00  0.00    -0.347 OA
BRANCH  26  27
ATOM     27  C   UNL     1     -18.663 -15.758  17.795  1.00  0.00     0.200 C 
BRANCH  27  28
ATOM     28  C   UNL     1     -19.008 -15.299  16.362  1.00  0.00     0.170 C 
BRANCH  28  29
ATOM     29  C   UNL     1     -19.479 -13.870  16.158  1.00  0.00    -0.013 A 
ATOM     30  C   UNL     1     -19.774 -13.446  14.848  1.00  0.00     0.056 A 
ATOM     31  C   UNL     1     -19.603 -12.936  17.201  1.00  0.00     0.010 A 
ATOM     32  C   UNL     1     -20.212 -12.149  14.606  1.00  0.00     0.157 A 
ATOM     33  C   UNL     1     -20.024 -11.625  16.949  1.00  0.00     0.050 A 
ATOM     34  C   UNL     1     -20.326 -11.243  15.652  1.00  0.00     0.157 A 
BRANCH  32  35
ATOM     35  O   UNL     1     -20.567 -11.733  13.352  1.00  0.00    -0.504 OA
ATOM     36  H   UNL     1     -21.198 -12.395  12.986  1.00  0.00     0.293 HD
ENDBRANCH  32  35
BRANCH  34  37
ATOM     37  O   UNL     1     -20.745  -9.966  15.412  1.00  0.00    -0.504 OA
ATOM     38  H   UNL     1     -20.720  -9.532  16.288  1.00  0.00     0.293 HD
ENDBRANCH  34  37
ENDBRANCH  28  29
BRANCH  28  39
ATOM     39  O   UNL     1     -19.949 -16.205  15.779  1.00  0.00    -0.386 OA
ATOM     40  H   UNL     1     -19.986 -16.983  16.375  1.00  0.00     0.211 HD
ENDBRANCH  28  39
ENDBRANCH  27  28
ENDBRANCH  26  27
ENDBRANCH   5  26
BRANCH   4  41
ATOM     41  O   UNL     1     -17.360 -18.223  15.730  1.00  0.00    -0.385 OA
ATOM     42  H   UNL     1     -18.169 -17.712  15.933  1.00  0.00     0.211 HD
ENDBRANCH   4  41
TORSDOF 16
ENDMDL
MODEL 5
REMARK VINA RESULT:    -7.205      1.425      1.907
REMARK INTER + INTRA:         -13.416
REMARK INTER:                 -12.133
REMARK INTRA:                  -1.284
REMARK UNBOUND:                -1.368
REMARK SMILES C[C@@H]1O[C@@H](OC[C@H]2O[C@@H](OCC(O)c3ccc(O)c(O)c3)[C@H](O)[C@@H](O)[C@@H]2O)[C@H](O)[C@H](O)[C@H]1O
REMARK SMILES IDX 7 1 26 2 24 3 22 4 9 5 8 6 6 7 5 8 4 9 2 10 32 11 3 12 30 13
REMARK SMILES IDX 28 14 1 15 33 16 31 18 29 20 27 22 25 24 10 26 11 27 12 28
REMARK SMILES IDX 14 29 21 30 15 31 19 32 16 33 17 34 20 35 18 37 13 39 23 41
REMARK H PARENT 33 17 31 19 29 21 27 23 25 25 20 36 18 38 13 40 23 42
ROOT
ATOM      1  C   UNL     1     -15.167 -18.197  16.373  1.00  0.00     0.178 C 
ATOM      2  C   UNL     1     -14.739 -19.294  17.360  1.00  0.00     0.177 C 
ATOM      3  C   UNL     1     -15.103 -18.880  18.784  1.00  0.00     0.179 C 
ATOM      4  C   UNL     1     -16.579 -18.513  18.870  1.00  0.00     0.202 C 
ATOM      5  C   UNL     1     -16.908 -17.441  17.814  1.00  0.00     0.282 C 
ATOM      6  O   UNL     1     -16.578 -17.919  16.509  1.00  0.00    -0.341 OA
ENDROOT
BRANCH   1   7
ATOM      7  C   UNL     1     -14.880 -18.632  14.927  1.00  0.00     0.198 C 
BRANCH   7   8
ATOM      8  O   UNL     1     -15.113 -20.041  14.809  1.00  0.00    -0.347 OA
BRANCH   8   9
ATOM      9  C   UNL     1     -16.394 -20.351  14.254  1.00  0.00     0.281 C 
ATOM     10  C   UNL     1     -16.682 -22.281  15.648  1.00  0.00     0.150 C 
ATOM     11  C   UNL     1     -16.625 -23.241  14.448  1.00  0.00     0.174 C 
ATOM     12  O   UNL     1     -17.191 -21.005  15.256  1.00  0.00    -0.344 OA
ATOM     13  C   UNL     1     -15.781 -22.611  13.332  1.00  0.00     0.179 C 
ATOM     14  C   UNL     1     -16.290 -21.213  12.978  1.00  0.00     0.202 C 
ATOM     15  C   UNL     1     -17.592 -22.808  16.752  1.00  0.00     0.041 C 
BRANCH  11  16
ATOM     16  O   UNL     1     -16.061 -24.518  14.809  1.00  0.00    -0.388 OA
ATOM     17  H   UNL     1     -15.093 -24.395  14.776  1.00  0.00     0.211 HD
ENDBRANCH  11  16
BRANCH  13  18
ATOM     18  O   UNL     1     -15.843 -23.436  12.154  1.00  0.00    -0.387 OA
ATOM     19  H   UNL     1     -16.581 -23.078  11.620  1.00  0.00     0.211 HD
ENDBRANCH  13  18
BRANCH  14  20
ATOM     20  O   UNL     1     -17.564 -21.333  12.322  1.00  0.00    -0.385 OA
ATOM     21  H   UNL     1     -17.479 -20.783  11.515  1.00  0.00     0.211 HD
ENDBRANCH  14  20
ENDBRANCH   8   9
ENDBRANCH   7   8
ENDBRANCH   1   7
BRANCH   2  22
ATOM     22  O   UNL     1     -13.333 -19.536  17.288  1.00  0.00    -0.387 OA
ATOM     23  H   UNL     1     -12.926 -18.653  17.165  1.00  0.00     0.211 HD
ENDBRANCH   2  22
BRANCH   3  24
ATOM     24  O   UNL     1     -14.803 -19.964  19.677  1.00  0.00    -0.387 OA
ATOM     25  H   UNL     1     -15.520 -19.952  20.343  1.00  0.00     0.211 HD
ENDBRANCH   3  24
BRANCH   5  26
ATOM     26  O   UNL     1     -18.316 -17.206  17.919  1.00  0.00    -0.347 OA
BRANCH  26  27
ATOM     27  C   UNL     1     -18.711 -15.836  17.781  1.00  0.00     0.200 C 
BRANCH  27  28
ATOM     28  C   UNL     1     -18.989 -15.353  16.341  1.00  0.00     0.170 C 
BRANCH  28  29
ATOM     29  C   UNL     1     -19.465 -13.926  16.140  1.00  0.00    -0.013 A 
ATOM     30  C   UNL     1     -19.747 -13.496  14.828  1.00  0.00     0.056 A 
ATOM     31  C   UNL     1     -19.605 -12.998  17.186  1.00  0.00     0.010 A 
ATOM     32  C   UNL     1     -20.189 -12.199  14.589  1.00  0.00     0.157 A 
ATOM     33  C   UNL     1     -20.029 -11.688  16.937  1.00  0.00     0.050 A 
ATOM     34  C   UNL     1     -20.319 -11.300  15.639  1.00  0.00     0.157 A 
BRANCH  32  35
ATOM     35  O   UNL     1     -20.532 -11.778  13.333  1.00  0.00    -0.504 OA
ATOM     36  H   UNL     1     -21.268 -12.351  13.018  1.00  0.00     0.293 HD
ENDBRANCH  32  35
BRANCH  34  37
ATOM     37  O   UNL     1     -20.742 -10.024  15.401  1.00  0.00    -0.504 OA
ATOM     38  H   UNL     1     -20.988 -10.021  14.455  1.00  0.00     0.293 HD
ENDBRANCH  34  37
ENDBRANCH  28  29
BRANCH  28  39
ATOM     39  O   UNL     1     -19.890 -16.258  15.695  1.00  0.00    -0.386 OA
ATOM     40  H   UNL     1     -19.739 -17.136  16.106  1.00  0.00     0.211 HD
ENDBRANCH  28  39
ENDBRANCH  27  28
ENDBRANCH  26  27
ENDBRANCH   5  26
BRANCH   4  41
ATOM     41  O   UNL     1     -16.865 -18.050  20.199  1.00  0.00    -0.385 OA
ATOM     42  H   UNL     1     -17.767 -17.674  20.151  1.00  0.00     0.211 HD
ENDBRANCH   4  41
TORSDOF 16
ENDMDL
MODEL 6
REMARK VINA RESULT:    -7.102      1.563      2.097
REMARK INTER + INTRA:         -13.245
REMARK INTER:                 -11.809
REMARK INTRA:                  -1.436
REMARK UNBOUND:                -1.368
REMARK SMILES C[C@@H]1O[C@@H](OC[C@H]2O[C@@H](OCC(O)c3ccc(O)c(O)c3)[C@H](O)[C@@H](O)[C@@H]2O)[C@H](O)[C@H](O)[C@H]1O
REMARK SMILES IDX 7 1 26 2 24 3 22 4 9 5 8 6 6 7 5 8 4 9 2 10 32 11 3 12 30 13
REMARK SMILES IDX 28 14 1 15 33 16 31 18 29 20 27 22 25 24 10 26 11 27 12 28
REMARK SMILES IDX 14 29 21 30 15 31 19 32 16 33 17 34 20 35 18 37 13 39 23 41
REMARK H PARENT 33 17 31 19 29 21 27 23 25 25 20 36 18 38 13 40 23 42
ROOT
ATOM      1  C   UNL     1     -15.749 -18.940  16.235  1.00  0.00     0.178 C 
ATOM      2  C   UNL     1     -15.142 -19.792  17.359  1.00  0.00     0.177 C 
ATOM      3  C   UNL     1     -15.223 -19.037  18.684  1.00  0.00     0.179 C 
ATOM      4  C   UNL     1     -16.654 -18.589  18.952  1.00  0.00     0.202 C 
ATOM      5  C   UNL     1     -17.178 -17.781  17.750  1.00  0.00     0.282 C 
ATOM      6  O   UNL     1     -17.107 -18.570  16.560  1.00  0.00    -0.341 OA
ENDROOT
BRANCH   1   7
ATOM      7  C   UNL     1     -15.748 -19.717  14.909  1.00  0.00     0.198 C 
BRANCH   7   8
ATOM      8  O   UNL     1     -15.665 -21.120  15.190  1.00  0.00    -0.347 OA
BRANCH   8   9
ATOM      9  C   UNL     1     -16.808 -21.850  14.738  1.00  0.00     0.281 C 
ATOM     10  C   UNL     1     -17.518 -22.387  16.963  1.00  0.00     0.150 C 
ATOM     11  C   UNL     1     -17.258 -23.888  16.758  1.00  0.00     0.174 C 
ATOM     12  O   UNL     1     -17.847 -21.753  15.726  1.00  0.00    -0.344 OA
ATOM     13  C   UNL     1     -16.149 -24.074  15.713  1.00  0.00     0.179 C 
ATOM     14  C   UNL     1     -16.479 -23.324  14.422  1.00  0.00     0.202 C 
ATOM     15  C   UNL     1     -18.681 -22.140  17.919  1.00  0.00     0.041 C 
BRANCH  11  16
ATOM     16  O   UNL     1     -16.869 -24.538  17.985  1.00  0.00    -0.388 OA
ATOM     17  H   UNL     1     -16.530 -25.416  17.722  1.00  0.00     0.211 HD
ENDBRANCH  11  16
BRANCH  13  18
ATOM     18  O   UNL     1     -16.001 -25.473  15.408  1.00  0.00    -0.387 OA
ATOM     19  H   UNL     1     -16.148 -25.550  14.444  1.00  0.00     0.211 HD
ENDBRANCH  13  18
BRANCH  14  20
ATOM     20  O   UNL     1     -17.581 -23.978  13.770  1.00  0.00    -0.385 OA
ATOM     21  H   UNL     1     -18.169 -23.248  13.486  1.00  0.00     0.211 HD
ENDBRANCH  14  20
ENDBRANCH   8   9
ENDBRANCH   7   8
ENDBRANCH   1   7
BRANCH   2  22
ATOM     22  O   UNL     1     -13.776 -20.112  17.086  1.00  0.00    -0.387 OA
ATOM     23  H   UNL     1     -13.285 -19.274  17.213  1.00  0.00     0.211 HD
ENDBRANCH   2  22
BRANCH   3  24
ATOM     24  O   UNL     1     -14.758 -19.892  19.739  1.00  0.00    -0.387 OA
ATOM     25  H   UNL     1     -13.781 -19.847  19.692  1.00  0.00     0.211 HD
ENDBRANCH   3  24
BRANCH   5  26
ATOM     26  O   UNL     1     -18.539 -17.461  18.056  1.00  0.00    -0.347 OA
BRANCH  26  27
ATOM     27  C   UNL     1     -18.881 -16.078  17.903  1.00  0.00     0.200 C 
BRANCH  27  28
ATOM     28  C   UNL     1     -18.975 -15.559  16.452  1.00  0.00     0.170 C 
BRANCH  28  29
ATOM     29  C   UNL     1     -19.406 -14.121  16.227  1.00  0.00    -0.013 A 
ATOM     30  C   UNL     1     -19.725 -13.717  14.916  1.00  0.00     0.056 A 
ATOM     31  C   UNL     1     -19.471 -13.160  17.251  1.00  0.00     0.010 A 
ATOM     32  C   UNL     1     -20.128 -12.413  14.656  1.00  0.00     0.157 A 
ATOM     33  C   UNL     1     -19.857 -11.843  16.980  1.00  0.00     0.050 A 
ATOM     34  C   UNL     1     -20.184 -11.480  15.684  1.00  0.00     0.157 A 
BRANCH  32  35
ATOM     35  O   UNL     1     -20.505 -12.014  13.403  1.00  0.00    -0.504 OA
ATOM     36  H   UNL     1     -21.404 -12.380  13.232  1.00  0.00     0.293 HD
ENDBRANCH  32  35
BRANCH  34  37
ATOM     37  O   UNL     1     -20.569 -10.197  15.425  1.00  0.00    -0.504 OA
ATOM     38  H   UNL     1     -20.696 -10.171  14.456  1.00  0.00     0.293 HD
ENDBRANCH  34  37
ENDBRANCH  28  29
BRANCH  28  39
ATOM     39  O   UNL     1     -19.799 -16.437  15.679  1.00  0.00    -0.386 OA
ATOM     40  H   UNL     1     -20.039 -17.181  16.271  1.00  0.00     0.211 HD
ENDBRANCH  28  39
ENDBRANCH  27  28
ENDBRANCH  26  27
ENDBRANCH   5  26
BRANCH   4  41
ATOM     41  O   UNL     1     -16.677 -17.811  20.160  1.00  0.00    -0.385 OA
ATOM     42  H   UNL     1     -17.085 -16.959  19.908  1.00  0.00     0.211 HD
ENDBRANCH   4  41
TORSDOF 16
ENDMDL
MODEL 7
REMARK VINA RESULT:    -7.065      3.040      5.825
REMARK INTER + INTRA:         -13.183
REMARK INTER:                 -11.845
REMARK INTRA:                  -1.337
REMARK UNBOUND:                -1.368
REMARK SMILES C[C@@H]1O[C@@H](OC[C@H]2O[C@@H](OCC(O)c3ccc(O)c(O)c3)[C@H](O)[C@@H](O)[C@@H]2O)[C@H](O)[C@H](O)[C@H]1O
REMARK SMILES IDX 7 1 26 2 24 3 22 4 9 5 8 6 6 7 5 8 4 9 2 10 32 11 3 12 30 13
REMARK SMILES IDX 28 14 1 15 33 16 31 18 29 20 27 22 25 24 10 26 11 27 12 28
REMARK SMILES IDX 14 29 21 30 15 31 19 32 16 33 17 34 20 35 18 37 13 39 23 41
REMARK H PARENT 33 17 31 19 29 21 27 23 25 25 20 36 18 38 13 40 23 42
ROOT
ATOM      1  C   UNL     1     -16.556 -19.475  19.590  1.00  0.00     0.178 C 
ATOM      2  C   UNL     1     -15.756 -20.222  18.513  1.00  0.00     0.177 C 
ATOM      3  C   UNL     1     -16.402 -20.009  17.146  1.00  0.00     0.179 C 
ATOM      4  C   UNL     1     -16.575 -18.521  16.867  1.00  0.00     0.202 C 
ATOM      5  C   UNL     1     -17.351 -17.864  18.025  1.00  0.00     0.282 C 
ATOM      6  O   UNL     1     -16.662 -18.074  19.259  1.00  0.00    -0.341 OA
ENDROOT
BRANCH   1   7
ATOM      7  C   UNL     1     -15.874 -19.614  20.961  1.00  0.00     0.198 C 
BRANCH   7   8
ATOM      8  O   UNL     1     -16.519 -20.660  21.699  1.00  0.00    -0.347 OA
BRANCH   8   9
ATOM      9  C   UNL     1     -15.597 -21.591  22.271  1.00  0.00     0.281 C 
ATOM     10  C   UNL     1     -16.890 -23.494  21.599  1.00  0.00     0.150 C 
ATOM     11  C   UNL     1     -17.212 -23.876  23.053  1.00  0.00     0.174 C 
ATOM     12  O   UNL     1     -15.637 -22.813  21.516  1.00  0.00    -0.344 OA
ATOM     13  C   UNL     1     -17.193 -22.613  23.926  1.00  0.00     0.179 C 
ATOM     14  C   UNL     1     -15.876 -21.853  23.766  1.00  0.00     0.202 C 
ATOM     15  C   UNL     1     -16.795 -24.723  20.700  1.00  0.00     0.041 C 
BRANCH  11  16
ATOM     16  O   UNL     1     -18.500 -24.515  23.168  1.00  0.00    -0.388 OA
ATOM     17  H   UNL     1     -18.744 -24.446  24.111  1.00  0.00     0.211 HD
ENDBRANCH  11  16
BRANCH  13  18
ATOM     18  O   UNL     1     -17.349 -22.979  25.309  1.00  0.00    -0.387 OA
ATOM     19  H   UNL     1     -16.490 -23.363  25.579  1.00  0.00     0.211 HD
ENDBRANCH  13  18
BRANCH  14  20
ATOM     20  O   UNL     1     -14.819 -22.618  24.370  1.00  0.00    -0.385 OA
ATOM     21  H   UNL     1     -15.247 -23.084  25.118  1.00  0.00     0.211 HD
ENDBRANCH  14  20
ENDBRANCH   8   9
ENDBRANCH   7   8
ENDBRANCH   1   7
BRANCH   2  22
ATOM     22  O   UNL     1     -15.697 -21.623  18.789  1.00  0.00    -0.387 OA
ATOM     23  H   UNL     1     -15.142 -21.705  19.592  1.00  0.00     0.211 HD
ENDBRANCH   2  22
BRANCH   3  24
ATOM     24  O   UNL     1     -15.578 -20.616  16.139  1.00  0.00    -0.387 OA
ATOM     25  H   UNL     1     -16.190 -21.157  15.600  1.00  0.00     0.211 HD
ENDBRANCH   3  24
BRANCH   5  26
ATOM     26  O   UNL     1     -17.409 -16.468  17.715  1.00  0.00    -0.347 OA
BRANCH  26  27
ATOM     27  C   UNL     1     -18.732 -15.934  17.585  1.00  0.00     0.200 C 
BRANCH  27  28
ATOM     28  C   UNL     1     -19.099 -15.367  16.196  1.00  0.00     0.170 C 
BRANCH  28  29
ATOM     29  C   UNL     1     -19.497 -13.906  16.097  1.00  0.00    -0.013 A 
ATOM     30  C   UNL     1     -19.734 -13.364  14.818  1.00  0.00     0.056 A 
ATOM     31  C   UNL     1     -19.610 -13.054  17.209  1.00  0.00     0.010 A 
ATOM     32  C   UNL     1     -20.104 -12.032  14.672  1.00  0.00     0.157 A 
ATOM     33  C   UNL     1     -19.962 -11.708  17.055  1.00  0.00     0.050 A 
ATOM     34  C   UNL     1     -20.208 -11.209  15.786  1.00  0.00     0.157 A 
BRANCH  32  35
ATOM     35  O   UNL     1     -20.403 -11.500  13.448  1.00  0.00    -0.504 OA
ATOM     36  H   UNL     1     -19.705 -10.839  13.232  1.00  0.00     0.293 HD
ENDBRANCH  32  35
BRANCH  34  37
ATOM     37  O   UNL     1     -20.561  -9.898  15.640  1.00  0.00    -0.504 OA
ATOM     38  H   UNL     1     -21.430  -9.829  16.082  1.00  0.00     0.293 HD
ENDBRANCH  34  37
ENDBRANCH  28  29
BRANCH  28  39
ATOM     39  O   UNL     1     -20.107 -16.184  15.593  1.00  0.00    -0.386 OA
ATOM     40  H   UNL     1     -19.889 -16.228  14.637  1.00  0.00     0.211 HD
ENDBRANCH  28  39
ENDBRANCH  27  28
ENDBRANCH  26  27
ENDBRANCH   5  26
BRANCH   4  41
ATOM     41  O   UNL     1     -17.261 -18.361  15.615  1.00  0.00    -0.385 OA
ATOM     42  H   UNL     1     -17.114 -17.428  15.360  1.00  0.00     0.211 HD
ENDBRANCH   4  41
TORSDOF 16
ENDMDL
MODEL 8
REMARK VINA RESULT:    -6.859      1.729      2.491
REMARK INTER + INTRA:         -12.838
REMARK INTER:                 -11.390
REMARK INTRA:                  -1.447
REMARK UNBOUND:                -1.368
REMARK SMILES C[C@@H]1O[C@@H](OC[C@H]2O[C@@H](OCC(O)c3ccc(O)c(O)c3)[C@H](O)[C@@H](O)[C@@H]2O)[C@H](O)[C@H](O)[C@H]1O
REMARK SMILES IDX 7 1 26 2 24 3 22 4 9 5 8 6 6 7 5 8 4 9 2 10 32 11 3 12 30 13
REMARK SMILES IDX 28 14 1 15 33 16 31 18 29 20 27 22 25 24 10 26 11 27 12 28
REMARK SMILES IDX 14 29 21 30 15 31 19 32 16 33 17 34 20 35 18 37 13 39 23 41
REMARK H PARENT 33 17 31 19 29 21 27 23 25 25 20 36 18 38 13 40 23 42
ROOT
ATOM      1  C   UNL     1     -14.698 -19.176  18.179  1.00  0.00     0.178 C 
ATOM      2  C   UNL     1     -15.365 -20.085  19.222  1.00  0.00     0.177 C 
ATOM      3  C   UNL     1     -16.491 -19.329  19.924  1.00  0.00     0.179 C 
ATOM      4  C   UNL     1     -17.459 -18.748  18.900  1.00  0.00     0.202 C 
ATOM      5  C   UNL     1     -16.683 -17.892  17.882  1.00  0.00     0.282 C 
ATOM      6  O   UNL     1     -15.678 -18.680  17.241  1.00  0.00    -0.341 OA
ENDROOT
BRANCH   1   7
ATOM      7  C   UNL     1     -13.614 -19.947  17.408  1.00  0.00     0.198 C 
BRANCH   7   8
ATOM      8  O   UNL     1     -13.998 -20.039  16.030  1.00  0.00    -0.347 OA
BRANCH   8   9
ATOM      9  C   UNL     1     -14.086 -21.387  15.563  1.00  0.00     0.281 C 
ATOM     10  C   UNL     1     -15.050 -20.741  13.465  1.00  0.00     0.150 C 
ATOM     11  C   UNL     1     -16.388 -21.427  13.791  1.00  0.00     0.174 C 
ATOM     12  O   UNL     1     -13.968 -21.394  14.131  1.00  0.00    -0.344 OA
ATOM     13  C   UNL     1     -16.589 -21.453  15.312  1.00  0.00     0.179 C 
ATOM     14  C   UNL     1     -15.387 -22.083  16.016  1.00  0.00     0.202 C 
ATOM     15  C   UNL     1     -14.747 -20.775  11.971  1.00  0.00     0.041 C 
BRANCH  11  16
ATOM     16  O   UNL     1     -17.502 -20.750  13.174  1.00  0.00    -0.388 OA
ATOM     17  H   UNL     1     -17.114 -20.001  12.681  1.00  0.00     0.211 HD
ENDBRANCH  11  16
BRANCH  13  18
ATOM     18  O   UNL     1     -17.764 -22.221  15.632  1.00  0.00    -0.387 OA
ATOM     19  H   UNL     1     -18.266 -21.679  16.273  1.00  0.00     0.211 HD
ENDBRANCH  13  18
BRANCH  14  20
ATOM     20  O   UNL     1     -15.357 -23.491  15.720  1.00  0.00    -0.385 OA
ATOM     21  H   UNL     1     -15.093 -23.914  16.564  1.00  0.00     0.211 HD
ENDBRANCH  14  20
ENDBRANCH   8   9
ENDBRANCH   7   8
ENDBRANCH   1   7
BRANCH   2  22
ATOM     22  O   UNL     1     -14.422 -20.531  20.199  1.00  0.00    -0.387 OA
ATOM     23  H   UNL     1     -13.576 -20.104  19.954  1.00  0.00     0.211 HD
ENDBRANCH   2  22
BRANCH   3  24
ATOM     24  O   UNL     1     -17.176 -20.227  20.810  1.00  0.00    -0.387 OA
ATOM     25  H   UNL     1     -17.389 -19.691  21.601  1.00  0.00     0.211 HD
ENDBRANCH   3  24
BRANCH   5  26
ATOM     26  O   UNL     1     -17.651 -17.445  16.927  1.00  0.00    -0.347 OA
BRANCH  26  27
ATOM     27  C   UNL     1     -17.702 -16.026  16.739  1.00  0.00     0.200 C 
BRANCH  27  28
ATOM     28  C   UNL     1     -18.934 -15.307  17.332  1.00  0.00     0.170 C 
BRANCH  28  29
ATOM     29  C   UNL     1     -19.377 -14.000  16.703  1.00  0.00    -0.013 A 
ATOM     30  C   UNL     1     -19.551 -13.958  15.305  1.00  0.00     0.056 A 
ATOM     31  C   UNL     1     -19.591 -12.818  17.433  1.00  0.00     0.010 A 
ATOM     32  C   UNL     1     -19.960 -12.786  14.679  1.00  0.00     0.157 A 
ATOM     33  C   UNL     1     -19.981 -11.635  16.794  1.00  0.00     0.050 A 
ATOM     34  C   UNL     1     -20.163 -11.630  15.421  1.00  0.00     0.157 A 
BRANCH  32  35
ATOM     35  O   UNL     1     -20.199 -12.737  13.332  1.00  0.00    -0.504 OA
ATOM     36  H   UNL     1     -19.465 -13.216  12.882  1.00  0.00     0.293 HD
ENDBRANCH  32  35
BRANCH  34  37
ATOM     37  O   UNL     1     -20.554 -10.477  14.803  1.00  0.00    -0.504 OA
ATOM     38  H   UNL     1     -20.361 -10.631  13.856  1.00  0.00     0.293 HD
ENDBRANCH  34  37
ENDBRANCH  28  29
BRANCH  28  39
ATOM     39  O   UNL     1     -18.756 -15.129  18.741  1.00  0.00    -0.386 OA
ATOM     40  H   UNL     1     -17.864 -15.482  18.951  1.00  0.00     0.211 HD
ENDBRANCH  28  39
ENDBRANCH  27  28
ENDBRANCH  26  27
ENDBRANCH   5  26
BRANCH   4  41
ATOM     41  O   UNL     1     -18.454 -17.975  19.590  1.00  0.00    -0.385 OA
ATOM     42  H   UNL     1     -19.139 -18.620  19.857  1.00  0.00     0.211 HD
ENDBRANCH   4  41
TORSDOF 16
ENDMDL
MODEL 9
REMARK VINA RESULT:    -6.829      2.244      3.565
REMARK INTER + INTRA:         -12.788
REMARK INTER:                 -11.611
REMARK INTRA:                  -1.177
REMARK UNBOUND:                -1.368
REMARK SMILES C[C@@H]1O[C@@H](OC[C@H]2O[C@@H](OCC(O)c3ccc(O)c(O)c3)[C@H](O)[C@@H](O)[C@@H]2O)[C@H](O)[C@H](O)[C@H]1O
REMARK SMILES IDX 7 1 26 2 24 3 22 4 9 5 8 6 6 7 5 8 4 9 2 10 32 11 3 12 30 13
REMARK SMILES IDX 28 14 1 15 33 16 31 18 29 20 27 22 25 24 10 26 11 27 12 28
REMARK SMILES IDX 14 29 21 30 15 31 19 32 16 33 17 34 20 35 18 37 13 39 23 41
REMARK H PARENT 33 17 31 19 29 21 27 23 25 25 20 36 18 38 13 40 23 42
ROOT
ATOM      1  C   UNL     1     -17.533 -20.730  18.098  1.00  0.00     0.178 C 
ATOM      2  C   UNL     1     -16.059 -20.878  17.691  1.00  0.00     0.177 C 
ATOM      3  C   UNL     1     -15.675 -19.763  16.720  1.00  0.00     0.179 C 
ATOM      4  C   UNL     1     -16.019 -18.402  17.313  1.00  0.00     0.202 C 
ATOM      5  C   UNL     1     -17.503 -18.376  17.724  1.00  0.00     0.282 C 
ATOM      6  O   UNL     1     -17.771 -19.421  18.661  1.00  0.00    -0.341 OA
ENDROOT
BRANCH   1   7
ATOM      7  C   UNL     1     -17.915 -21.797  19.136  1.00  0.00     0.198 C 
BRANCH   7   8
ATOM      8  O   UNL     1     -17.891 -23.086  18.509  1.00  0.00    -0.347 OA
BRANCH   8   9
ATOM      9  C   UNL     1     -19.196 -23.642  18.325  1.00  0.00     0.281 C 
ATOM     10  C   UNL     1     -18.379 -25.472  17.009  1.00  0.00     0.150 C 
ATOM     11  C   UNL     1     -19.097 -24.972  15.744  1.00  0.00     0.174 C 
ATOM     12  O   UNL     1     -19.080 -25.067  18.186  1.00  0.00    -0.344 OA
ATOM     13  C   UNL     1     -19.253 -23.446  15.817  1.00  0.00     0.179 C 
ATOM     14  C   UNL     1     -19.934 -23.025  17.119  1.00  0.00     0.202 C 
ATOM     15  C   UNL     1     -18.284 -26.993  17.041  1.00  0.00     0.041 C 
BRANCH  11  16
ATOM     16  O   UNL     1     -18.376 -25.320  14.545  1.00  0.00    -0.388 OA
ATOM     17  H   UNL     1     -19.056 -25.597  13.901  1.00  0.00     0.211 HD
ENDBRANCH  11  16
BRANCH  13  18
ATOM     18  O   UNL     1     -20.051 -22.988  14.710  1.00  0.00    -0.387 OA
ATOM     19  H   UNL     1     -19.452 -22.987  13.936  1.00  0.00     0.211 HD
ENDBRANCH  13  18
BRANCH  14  20
ATOM     20  O   UNL     1     -21.311 -23.438  17.081  1.00  0.00    -0.385 OA
ATOM     21  H   UNL     1     -21.702 -23.070  17.901  1.00  0.00     0.211 HD
ENDBRANCH  14  20
ENDBRANCH   8   9
ENDBRANCH   7   8
ENDBRANCH   1   7
BRANCH   2  22
ATOM     22  O   UNL     1     -15.818 -22.142  17.069  1.00  0.00    -0.387 OA
ATOM     23  H   UNL     1     -15.108 -22.559  17.601  1.00  0.00     0.211 HD
ENDBRANCH   2  22
BRANCH   3  24
ATOM     24  O   UNL     1     -14.268 -19.849  16.443  1.00  0.00    -0.387 OA
ATOM     25  H   UNL     1     -14.207 -19.967  15.473  1.00  0.00     0.211 HD
ENDBRANCH   3  24
BRANCH   5  26
ATOM     26  O   UNL     1     -17.721 -17.097  18.326  1.00  0.00    -0.347 OA
BRANCH  26  27
ATOM     27  C   UNL     1     -18.936 -16.445  17.936  1.00  0.00     0.200 C 
BRANCH  27  28
ATOM     28  C   UNL     1     -18.965 -15.867  16.504  1.00  0.00     0.170 C 
BRANCH  28  29
ATOM     29  C   UNL     1     -19.331 -14.405  16.326  1.00  0.00    -0.013 A 
ATOM     30  C   UNL     1     -19.707 -13.964  15.042  1.00  0.00     0.056 A 
ATOM     31  C   UNL     1     -19.282 -13.459  17.364  1.00  0.00     0.010 A 
ATOM     32  C   UNL     1     -20.054 -12.635  14.824  1.00  0.00     0.157 A 
ATOM     33  C   UNL     1     -19.613 -12.118  17.135  1.00  0.00     0.050 A 
ATOM     34  C   UNL     1     -19.997 -11.718  15.865  1.00  0.00     0.157 A 
BRANCH  32  35
ATOM     35  O   UNL     1     -20.485 -12.197  13.602  1.00  0.00    -0.504 OA
ATOM     36  H   UNL     1     -19.692 -11.916  13.090  1.00  0.00     0.293 HD
ENDBRANCH  32  35
BRANCH  34  37
ATOM     37  O   UNL     1     -20.329 -10.412  15.648  1.00  0.00    -0.504 OA
ATOM     38  H   UNL     1     -21.304 -10.416  15.582  1.00  0.00     0.293 HD
ENDBRANCH  34  37
ENDBRANCH  28  29
BRANCH  28  39
ATOM     39  O   UNL     1     -19.800 -16.679  15.674  1.00  0.00    -0.386 OA
ATOM     40  H   UNL     1     -20.488 -17.057  16.263  1.00  0.00     0.211 HD
ENDBRANCH  28  39
ENDBRANCH  27  28
ENDBRANCH  26  27
ENDBRANCH   5  26
BRANCH   4  41
ATOM     41  O   UNL     1     -15.723 -17.386  16.341  1.00  0.00    -0.385 OA
ATOM     42  H   UNL     1     -16.328 -17.562  15.593  1.00  0.00     0.211 HD
ENDBRANCH   4  41
TORSDOF 16
ENDMDL
