MODEL 1
REMARK VINA RESULT:    -7.386      0.000      0.000
REMARK INTER + INTRA:         -13.686
REMARK INTER:                 -12.352
REMARK INTRA:                  -1.334
REMARK UNBOUND:                -1.334
REMARK SMILES C[C@@H]1O[C@@H](OC[C@H]2O[C@@H](OCC(O)c3ccc(O)c(O)c3)[C@H](O)[C@@H](O)[C@@H]2O)[C@H](O)[C@H](O)[C@H]1O
REMARK SMILES IDX 7 1 26 2 24 3 22 4 9 5 8 6 6 7 5 8 4 9 2 10 32 11 3 12 30 13
REMARK SMILES IDX 28 14 1 15 33 16 31 18 29 20 27 22 25 24 10 26 11 27 12 28
REMARK SMILES IDX 14 29 21 30 15 31 19 32 16 33 17 34 20 35 18 37 13 39 23 41
REMARK H PARENT 33 17 31 19 29 21 27 23 25 25 20 36 18 38 13 40 23 42
ROOT
ATOM      1  C   UNL     1     -16.362 -19.024  16.434  1.00  0.00     0.178 C 
ATOM      2  C   UNL     1     -16.612 -20.338  17.190  1.00  0.00     0.177 C 
ATOM      3  C   UNL     1     -16.964 -20.039  18.646  1.00  0.00     0.179 C 
ATOM      4  C   UNL     1     -18.124 -19.053  18.719  1.00  0.00     0.202 C 
ATOM      5  C   UNL     1     -17.787 -17.795  17.896  1.00  0.00     0.282 C 
ATOM      6  O   UNL     1     -17.510 -18.154  16.541  1.00  0.00    -0.341 OA
ENDROOT
BRANCH   1   7
ATOM      7  C   UNL     1     -16.083 -19.303  14.948  1.00  0.00     0.198 C 
BRANCH   7   8
ATOM      8  O   UNL     1     -16.943 -20.359  14.502  1.00  0.00    -0.347 OA
BRANCH   8   9
ATOM      9  C   UNL     1     -16.398 -21.099  13.407  1.00  0.00     0.281 C 
ATOM     10  C   UNL     1     -18.411 -22.359  13.079  1.00  0.00     0.150 C 
ATOM     11  C   UNL     1     -17.734 -23.677  13.492  1.00  0.00     0.174 C 
ATOM     12  O   UNL     1     -17.462 -21.456  12.509  1.00  0.00    -0.344 OA
ATOM     13  C   UNL     1     -16.583 -23.376  14.462  1.00  0.00     0.179 C 
ATOM     14  C   UNL     1     -15.619 -22.348  13.869  1.00  0.00     0.202 C 
ATOM     15  C   UNL     1     -19.500 -22.585  12.036  1.00  0.00     0.041 C 
BRANCH  11  16
ATOM     16  O   UNL     1     -18.663 -24.582  14.121  1.00  0.00    -0.388 OA
ATOM     17  H   UNL     1     -19.550 -24.288  13.837  1.00  0.00     0.211 HD
ENDBRANCH  11  16
BRANCH  13  18
ATOM     18  O   UNL     1     -15.854 -24.586  14.738  1.00  0.00    -0.387 OA
ATOM     19  H   UNL     1     -14.919 -24.314  14.833  1.00  0.00     0.211 HD
ENDBRANCH  13  18
BRANCH  14  20
ATOM     20  O   UNL     1     -14.904 -22.953  12.777  1.00  0.00    -0.385 OA
ATOM     21  H   UNL     1     -15.597 -23.395  12.244  1.00  0.00     0.211 HD
ENDBRANCH  14  20
ENDBRANCH   8   9
ENDBRANCH   7   8
ENDBRANCH   1   7
BRANCH   2  22
ATOM     22  O   UNL     1     -15.461 -21.184  17.152  1.00  0.00    -0.387 OA
ATOM     23  H   UNL     1     -15.786 -22.072  17.411  1.00  0.00     0.211 HD
ENDBRANCH   2  22
BRANCH   3  24
ATOM     24  O   UNL     1     -17.308 -21.267  19.305  1.00  0.00    -0.387 OA
ATOM     25  H   UNL     1     -18.255 -21.175  19.538  1.00  0.00     0.211 HD
ENDBRANCH   3  24
BRANCH   5  26
ATOM     26  O   UNL     1     -18.946 -16.959  17.965  1.00  0.00    -0.347 OA
BRANCH  26  27
ATOM     27  C   UNL     1     -18.702 -15.568  17.726  1.00  0.00     0.200 C 
BRANCH  27  28
ATOM     28  C   UNL     1     -18.960 -15.072  16.287  1.00  0.00     0.170 C 
BRANCH  28  29
ATOM     29  C   UNL     1     -19.470 -13.655  16.094  1.00  0.00    -0.013 A 
ATOM     30  C   UNL     1     -19.701 -13.203  14.780  1.00  0.00     0.056 A 
ATOM     31  C   UNL     1     -19.692 -12.758  17.152  1.00  0.00     0.010 A 
ATOM     32  C   UNL     1     -20.170 -11.915  14.548  1.00  0.00     0.157 A 
ATOM     33  C   UNL     1     -20.144 -11.456  16.912  1.00  0.00     0.050 A 
ATOM     34  C   UNL     1     -20.381 -11.045  15.610  1.00  0.00     0.157 A 
BRANCH  32  35
ATOM     35  O   UNL     1     -20.464 -11.474  13.287  1.00  0.00    -0.504 OA
ATOM     36  H   UNL     1     -19.667 -11.620  12.727  1.00  0.00     0.293 HD
ENDBRANCH  32  35
BRANCH  34  37
ATOM     37  O   UNL     1     -20.832  -9.778  15.380  1.00  0.00    -0.504 OA
ATOM     38  H   UNL     1     -20.674  -9.632  14.426  1.00  0.00     0.293 HD
ENDBRANCH  34  37
ENDBRANCH  28  29
BRANCH  28  39
ATOM     39  O   UNL     1     -19.821 -15.991  15.607  1.00  0.00    -0.386 OA
ATOM     40  H   UNL     1     -20.270 -16.514  16.306  1.00  0.00     0.211 HD
ENDBRANCH  28  39
ENDBRANCH  27  28
ENDBRANCH  26  27
ENDBRANCH   5  26
BRANCH   4  41
ATOM     41  O   UNL     1     -18.372 -18.731  20.097  1.00  0.00    -0.385 OA
ATOM     42  H   UNL     1     -18.602 -19.581  20.521  1.00  0.00     0.211 HD
ENDBRANCH   4  41
TORSDOF 16
ENDMDL
MODEL 2
REMARK VINA RESULT:    -7.292      2.436      3.727
REMARK INTER + INTRA:         -13.529
REMARK INTER:                 -12.256
REMARK INTRA:                  -1.273
REMARK UNBOUND:                -1.334
REMARK SMILES C[C@@H]1O[C@@H](OC[C@H]2O[C@@H](OCC(O)c3ccc(O)c(O)c3)[C@H](O)[C@@H](O)[C@@H]2O)[C@H](O)[C@H](O)[C@H]1O
REMARK SMILES IDX 7 1 26 2 24 3 22 4 9 5 8 6 6 7 5 8 4 9 2 10 32 11 3 12 30 13
REMARK SMILES IDX 28 14 1 15 33 16 31 18 29 20 27 22 25 24 10 26 11 27 12 28
REMARK SMILES IDX 14 29 21 30 15 31 19 32 16 33 17 34 20 35 18 37 13 39 23 41
REMARK H PARENT 33 17 31 19 29 21 27 23 25 25 20 36 18 38 13 40 23 42
ROOT
ATOM      1  C   UNL     1     -16.322 -19.018  16.439  1.00  0.00     0.178 C 
ATOM      2  C   UNL     1     -16.558 -20.339  17.186  1.00  0.00     0.177 C 
ATOM      3  C   UNL     1     -16.902 -20.054  18.647  1.00  0.00     0.179 C 
ATOM      4  C   UNL     1     -18.066 -19.076  18.737  1.00  0.00     0.202 C 
ATOM      5  C   UNL     1     -17.744 -17.810  17.922  1.00  0.00     0.282 C 
ATOM      6  O   UNL     1     -17.475 -18.156  16.562  1.00  0.00    -0.341 OA
ENDROOT
BRANCH   1   7
ATOM      7  C   UNL     1     -16.053 -19.283  14.949  1.00  0.00     0.198 C 
BRANCH   7   8
ATOM      8  O   UNL     1     -14.645 -19.173  14.703  1.00  0.00    -0.347 OA
BRANCH   8   9
ATOM      9  C   UNL     1     -14.067 -20.385  14.211  1.00  0.00     0.281 C 
ATOM     10  C   UNL     1     -12.000 -20.031  15.373  1.00  0.00     0.150 C 
ATOM     11  C   UNL     1     -11.214 -19.859  14.063  1.00  0.00     0.174 C 
ATOM     12  O   UNL     1     -13.131 -20.883  15.181  1.00  0.00    -0.344 OA
ATOM     13  C   UNL     1     -12.152 -19.321  12.973  1.00  0.00     0.179 C 
ATOM     14  C   UNL     1     -13.395 -20.200  12.834  1.00  0.00     0.202 C 
ATOM     15  C   UNL     1     -11.144 -20.658  16.468  1.00  0.00     0.041 C 
BRANCH  11  16
ATOM     16  O   UNL     1     -10.100 -18.957  14.220  1.00  0.00    -0.388 OA
ATOM     17  H   UNL     1     -10.297 -18.193  13.645  1.00  0.00     0.211 HD
ENDBRANCH  11  16
BRANCH  13  18
ATOM     18  O   UNL     1     -11.462 -19.296  11.710  1.00  0.00    -0.387 OA
ATOM     19  H   UNL     1     -11.977 -19.878  11.116  1.00  0.00     0.211 HD
ENDBRANCH  13  18
BRANCH  14  20
ATOM     20  O   UNL     1     -13.012 -21.464  12.265  1.00  0.00    -0.385 OA
ATOM     21  H   UNL     1     -13.697 -21.648  11.589  1.00  0.00     0.211 HD
ENDBRANCH  14  20
ENDBRANCH   8   9
ENDBRANCH   7   8
ENDBRANCH   1   7
BRANCH   2  22
ATOM     22  O   UNL     1     -15.403 -21.178  17.133  1.00  0.00    -0.387 OA
ATOM     23  H   UNL     1     -15.743 -22.073  16.927  1.00  0.00     0.211 HD
ENDBRANCH   2  22
BRANCH   3  24
ATOM     24  O   UNL     1     -17.232 -21.290  19.299  1.00  0.00    -0.387 OA
ATOM     25  H   UNL     1     -16.952 -21.170  20.229  1.00  0.00     0.211 HD
ENDBRANCH   3  24
BRANCH   5  26
ATOM     26  O   UNL     1     -18.908 -16.982  18.005  1.00  0.00    -0.347 OA
BRANCH  26  27
ATOM     27  C   UNL     1     -18.678 -15.590  17.756  1.00  0.00     0.200 C 
BRANCH  27  28
ATOM     28  C   UNL     1     -18.915 -15.113  16.307  1.00  0.00     0.170 C 
BRANCH  28  29
ATOM     29  C   UNL     1     -19.436 -13.704  16.089  1.00  0.00    -0.013 A 
ATOM     30  C   UNL     1     -19.702 -13.288  14.770  1.00  0.00     0.056 A 
ATOM     31  C   UNL     1     -19.635 -12.779  17.128  1.00  0.00     0.010 A 
ATOM     32  C   UNL     1     -20.184 -12.009  14.515  1.00  0.00     0.157 A 
ATOM     33  C   UNL     1     -20.100 -11.486  16.864  1.00  0.00     0.050 A 
ATOM     34  C   UNL     1     -20.371 -11.112  15.558  1.00  0.00     0.157 A 
BRANCH  32  35
ATOM     35  O   UNL     1     -20.511 -11.604  13.250  1.00  0.00    -0.504 OA
ATOM     36  H   UNL     1     -19.739 -11.790  12.668  1.00  0.00     0.293 HD
ENDBRANCH  32  35
BRANCH  34  37
ATOM     37  O   UNL     1     -20.834  -9.853  15.305  1.00  0.00    -0.504 OA
ATOM     38  H   UNL     1     -21.717  -9.993  14.909  1.00  0.00     0.293 HD
ENDBRANCH  34  37
ENDBRANCH  28  29
BRANCH  28  39
ATOM     39  O   UNL     1     -19.753 -16.049  15.622  1.00  0.00    -0.386 OA
ATOM     40  H   UNL     1     -19.181 -16.497  14.962  1.00  0.00     0.211 HD
ENDBRANCH  28  39
ENDBRANCH  27  28
ENDBRANCH  26  27
ENDBRANCH   5  26
BRANCH   4  41
ATOM     41  O   UNL     1     -18.306 -18.767  20.119  1.00  0.00    -0.385 OA
ATOM     42  H   UNL     1     -18.453 -19.631  20.553  1.00  0.00     0.211 HD
ENDBRANCH   4  41
TORSDOF 16
ENDMDL
MODEL 3
REMARK VINA RESULT:    -7.276      3.064      5.778
REMARK INTER + INTRA:         -13.502
REMARK INTER:                 -12.185
REMARK INTRA:                  -1.318
REMARK UNBOUND:                -1.334
REMARK SMILES C[C@@H]1O[C@@H](OC[C@H]2O[C@@H](OCC(O)c3ccc(O)c(O)c3)[C@H](O)[C@@H](O)[C@@H]2O)[C@H](O)[C@H](O)[C@H]1O
REMARK SMILES IDX 7 1 26 2 24 3 22 4 9 5 8 6 6 7 5 8 4 9 2 10 32 11 3 12 30 13
REMARK SMILES IDX 28 14 1 15 33 16 31 18 29 20 27 22 25 24 10 26 11 27 12 28
REMARK SMILES IDX 14 29 21 30 15 31 19 32 16 33 17 34 20 35 18 37 13 39 23 41
REMARK H PARENT 33 17 31 19 29 21 27 23 25 25 20 36 18 38 13 40 23 42
ROOT
ATOM      1  C   UNL     1     -17.115 -19.719  19.660  1.00  0.00     0.178 C 
ATOM      2  C   UNL     1     -16.326 -20.443  18.560  1.00  0.00     0.177 C 
ATOM      3  C   UNL     1     -16.856 -20.035  17.187  1.00  0.00     0.179 C 
ATOM      4  C   UNL     1     -16.859 -18.518  17.049  1.00  0.00     0.202 C 
ATOM      5  C   UNL     1     -17.638 -17.892  18.221  1.00  0.00     0.282 C 
ATOM      6  O   UNL     1     -17.056 -18.289  19.465  1.00  0.00    -0.341 OA
ENDROOT
BRANCH   1   7
ATOM      7  C   UNL     1     -16.541 -20.057  21.046  1.00  0.00     0.198 C 
BRANCH   7   8
ATOM      8  O   UNL     1     -15.126 -20.247  20.931  1.00  0.00    -0.347 OA
BRANCH   8   9
ATOM      9  C   UNL     1     -14.374 -19.087  21.296  1.00  0.00     0.281 C 
ATOM     10  C   UNL     1     -12.819 -19.360  19.492  1.00  0.00     0.150 C 
ATOM     11  C   UNL     1     -11.652 -19.650  20.450  1.00  0.00     0.174 C 
ATOM     12  O   UNL     1     -13.791 -18.517  20.112  1.00  0.00    -0.344 OA
ATOM     13  C   UNL     1     -12.198 -20.270  21.744  1.00  0.00     0.179 C 
ATOM     14  C   UNL     1     -13.293 -19.394  22.354  1.00  0.00     0.202 C 
ATOM     15  C   UNL     1     -12.349 -18.650  18.227  1.00  0.00     0.041 C 
BRANCH  11  16
ATOM     16  O   UNL     1     -10.686 -20.545  19.864  1.00  0.00    -0.388 OA
ATOM     17  H   UNL     1     -11.208 -21.244  19.425  1.00  0.00     0.211 HD
ENDBRANCH  11  16
BRANCH  13  18
ATOM     18  O   UNL     1     -11.133 -20.408  22.701  1.00  0.00    -0.387 OA
ATOM     19  H   UNL     1     -11.272 -19.695  23.357  1.00  0.00     0.211 HD
ENDBRANCH  13  18
BRANCH  14  20
ATOM     20  O   UNL     1     -12.698 -18.186  22.860  1.00  0.00    -0.385 OA
ATOM     21  H   UNL     1     -13.270 -17.468  22.517  1.00  0.00     0.211 HD
ENDBRANCH  14  20
ENDBRANCH   8   9
ENDBRANCH   7   8
ENDBRANCH   1   7
BRANCH   2  22
ATOM     22  O   UNL     1     -16.428 -21.862  18.698  1.00  0.00    -0.387 OA
ATOM     23  H   UNL     1     -15.521 -22.166  18.911  1.00  0.00     0.211 HD
ENDBRANCH   2  22
BRANCH   3  24
ATOM     24  O   UNL     1     -16.034 -20.631  16.172  1.00  0.00    -0.387 OA
ATOM     25  H   UNL     1     -15.533 -19.885  15.781  1.00  0.00     0.211 HD
ENDBRANCH   3  24
BRANCH   5  26
ATOM     26  O   UNL     1     -17.534 -16.476  18.050  1.00  0.00    -0.347 OA
BRANCH  26  27
ATOM     27  C   UNL     1     -18.776 -15.805  17.804  1.00  0.00     0.200 C 
BRANCH  27  28
ATOM     28  C   UNL     1     -19.007 -15.317  16.357  1.00  0.00     0.170 C 
BRANCH  28  29
ATOM     29  C   UNL     1     -19.465 -13.885  16.145  1.00  0.00    -0.013 A 
ATOM     30  C   UNL     1     -19.768 -13.470  14.833  1.00  0.00     0.056 A 
ATOM     31  C   UNL     1     -19.569 -12.941  17.180  1.00  0.00     0.010 A 
ATOM     32  C   UNL     1     -20.195 -12.171  14.584  1.00  0.00     0.157 A 
ATOM     33  C   UNL     1     -19.979 -11.628  16.921  1.00  0.00     0.050 A 
ATOM     34  C   UNL     1     -20.289 -11.254  15.623  1.00  0.00     0.157 A 
BRANCH  32  35
ATOM     35  O   UNL     1     -20.557 -11.762  13.330  1.00  0.00    -0.504 OA
ATOM     36  H   UNL     1     -20.590 -10.777  13.335  1.00  0.00     0.293 HD
ENDBRANCH  32  35
BRANCH  34  37
ATOM     37  O   UNL     1     -20.698  -9.976  15.375  1.00  0.00    -0.504 OA
ATOM     38  H   UNL     1     -21.188 -10.036  14.531  1.00  0.00     0.293 HD
ENDBRANCH  34  37
ENDBRANCH  28  29
BRANCH  28  39
ATOM     39  O   UNL     1     -19.895 -16.213  15.682  1.00  0.00    -0.386 OA
ATOM     40  H   UNL     1     -20.735 -15.721  15.553  1.00  0.00     0.211 HD
ENDBRANCH  28  39
ENDBRANCH  27  28
ENDBRANCH  26  27
ENDBRANCH   5  26
BRANCH   4  41
ATOM     41  O   UNL     1     -17.442 -18.169  15.783  1.00  0.00    -0.385 OA
ATOM     42  H   UNL     1     -16.825 -18.522  15.111  1.00  0.00     0.211 HD
ENDBRANCH   4  41
TORSDOF 16
ENDMDL
MODEL 4
REMARK VINA RESULT:    -7.255      1.304      1.419
REMARK INTER + INTRA:         -13.467
REMARK INTER:                 -12.320
REMARK INTRA:                  -1.147
REMARK UNBOUND:                -1.334
REMARK SMILES C[C@@H]1O[C@@H](OC[C@H]2O[C@@H](OCC(O)c3ccc(O)c(O)c3)[C@H](O)[C@@H](O)[C@@H]2O)[C@H](O)[C@H](O)[C@H]1O
REMARK SMILES IDX 7 1 26 2 24 3 22 4 9 5 8 6 6 7 5 8 4 9 2 10 32 11 3 12 30 13
REMARK SMILES IDX 28 14 1 15 33 16 31 18 29 20 27 22 25 24 10 26 11 27 12 28
REMARK SMILES IDX 14 29 21 30 15 31 19 32 16 33 17 34 20 35 18 37 13 39 23 41
REMARK H PARENT 33 17 31 19 29 21 27 23 25 25 20 36 18 38 13 40 23 42
ROOT
ATOM      1  C   UNL     1     -15.720 -18.765  16.153  1.00  0.00     0.178 C 
ATOM      2  C   UNL     1     -15.184 -19.693  17.253  1.00  0.00     0.177 C 
ATOM      3  C   UNL     1     -15.296 -19.005  18.612  1.00  0.00     0.179 C 
ATOM      4  C   UNL     1     -16.723 -18.525  18.848  1.00  0.00     0.202 C 
ATOM      5  C   UNL     1     -17.173 -17.640  17.670  1.00  0.00     0.282 C 
ATOM      6  O   UNL     1     -17.078 -18.369  16.444  1.00  0.00    -0.341 OA
ENDROOT
BRANCH   1   7
ATOM      7  C   UNL     1     -15.688 -19.473  14.789  1.00  0.00     0.198 C 
BRANCH   7   8
ATOM      8  O   UNL     1     -16.816 -20.350  14.692  1.00  0.00    -0.347 OA
BRANCH   8   9
ATOM      9  C   UNL     1     -16.453 -21.697  14.377  1.00  0.00     0.281 C 
ATOM     10  C   UNL     1     -18.683 -22.292  13.728  1.00  0.00     0.150 C 
ATOM     11  C   UNL     1     -18.837 -23.271  14.904  1.00  0.00     0.174 C 
ATOM     12  O   UNL     1     -17.314 -22.181  13.334  1.00  0.00    -0.344 OA
ATOM     13  C   UNL     1     -17.945 -22.813  16.067  1.00  0.00     0.179 C 
ATOM     14  C   UNL     1     -16.499 -22.624  15.610  1.00  0.00     0.202 C 
ATOM     15  C   UNL     1     -19.469 -22.750  12.505  1.00  0.00     0.041 C 
BRANCH  11  16
ATOM     16  O   UNL     1     -20.203 -23.355  15.356  1.00  0.00    -0.388 OA
ATOM     17  H   UNL     1     -20.725 -22.838  14.712  1.00  0.00     0.211 HD
ENDBRANCH  11  16
BRANCH  13  18
ATOM     18  O   UNL     1     -17.972 -23.801  17.114  1.00  0.00    -0.387 OA
ATOM     19  H   UNL     1     -18.906 -24.083  17.187  1.00  0.00     0.211 HD
ENDBRANCH  13  18
BRANCH  14  20
ATOM     20  O   UNL     1     -15.928 -23.911  15.318  1.00  0.00    -0.385 OA
ATOM     21  H   UNL     1     -16.545 -24.553  15.728  1.00  0.00     0.211 HD
ENDBRANCH  14  20
ENDBRANCH   8   9
ENDBRANCH   7   8
ENDBRANCH   1   7
BRANCH   2  22
ATOM     22  O   UNL     1     -13.819 -20.043  17.018  1.00  0.00    -0.387 OA
ATOM     23  H   UNL     1     -13.505 -20.435  17.859  1.00  0.00     0.211 HD
ENDBRANCH   2  22
BRANCH   3  24
ATOM     24  O   UNL     1     -14.901 -19.929  19.638  1.00  0.00    -0.387 OA
ATOM     25  H   UNL     1     -15.739 -20.305  19.978  1.00  0.00     0.211 HD
ENDBRANCH   3  24
BRANCH   5  26
ATOM     26  O   UNL     1     -18.535 -17.292  17.939  1.00  0.00    -0.347 OA
BRANCH  26  27
ATOM     27  C   UNL     1     -18.840 -15.899  17.800  1.00  0.00     0.200 C 
BRANCH  27  28
ATOM     28  C   UNL     1     -19.016 -15.385  16.355  1.00  0.00     0.170 C 
BRANCH  28  29
ATOM     29  C   UNL     1     -19.458 -13.948  16.151  1.00  0.00    -0.013 A 
ATOM     30  C   UNL     1     -19.770 -13.525  14.844  1.00  0.00     0.056 A 
ATOM     31  C   UNL     1     -19.541 -13.005  17.190  1.00  0.00     0.010 A 
ATOM     32  C   UNL     1     -20.184 -12.220  14.602  1.00  0.00     0.157 A 
ATOM     33  C   UNL     1     -19.937 -11.686  16.938  1.00  0.00     0.050 A 
ATOM     34  C   UNL     1     -20.257 -11.305  15.645  1.00  0.00     0.157 A 
BRANCH  32  35
ATOM     35  O   UNL     1     -20.555 -11.804  13.353  1.00  0.00    -0.504 OA
ATOM     36  H   UNL     1     -20.819 -10.857  13.420  1.00  0.00     0.293 HD
ENDBRANCH  32  35
BRANCH  34  37
ATOM     37  O   UNL     1     -20.653 -10.021  15.404  1.00  0.00    -0.504 OA
ATOM     38  H   UNL     1     -20.023  -9.694  14.731  1.00  0.00     0.293 HD
ENDBRANCH  34  37
ENDBRANCH  28  29
BRANCH  28  39
ATOM     39  O   UNL     1     -19.883 -16.265  15.633  1.00  0.00    -0.386 OA
ATOM     40  H   UNL     1     -19.368 -17.084  15.470  1.00  0.00     0.211 HD
ENDBRANCH  28  39
ENDBRANCH  27  28
ENDBRANCH  26  27
ENDBRANCH   5  26
BRANCH   4  41
ATOM     41  O   UNL     1     -16.772 -17.811  20.093  1.00  0.00    -0.385 OA
ATOM     42  H   UNL     1     -17.648 -17.375  20.105  1.00  0.00     0.211 HD
ENDBRANCH   4  41
TORSDOF 16
ENDMDL
MODEL 5
REMARK VINA RESULT:    -7.225      1.156      1.497
REMARK INTER + INTRA:         -13.416
REMARK INTER:                 -12.374
REMARK INTRA:                  -1.042
REMARK UNBOUND:                -1.334
REMARK SMILES C[C@@H]1O[C@@H](OC[C@H]2O[C@@H](OCC(O)c3ccc(O)c(O)c3)[C@H](O)[C@@H](O)[C@@H]2O)[C@H](O)[C@H](O)[C@H]1O
REMARK SMILES IDX 7 1 26 2 24 3 22 4 9 5 8 6 6 7 5 8 4 9 2 10 32 11 3 12 30 13
REMARK SMILES IDX 28 14 1 15 33 16 31 18 29 20 27 22 25 24 10 26 11 27 12 28
REMARK SMILES IDX 14 29 21 30 15 31 19 32 16 33 17 34 20 35 18 37 13 39 23 41
REMARK H PARENT 33 17 31 19 29 21 27 23 25 25 20 36 18 38 13 40 23 42
ROOT
ATOM      1  C   UNL     1     -15.773 -18.683  16.183  1.00  0.00     0.178 C 
ATOM      2  C   UNL     1     -15.393 -19.700  17.270  1.00  0.00     0.177 C 
ATOM      3  C   UNL     1     -15.519 -19.056  18.649  1.00  0.00     0.179 C 
ATOM      4  C   UNL     1     -16.906 -18.449  18.827  1.00  0.00     0.202 C 
ATOM      5  C   UNL     1     -17.201 -17.481  17.665  1.00  0.00     0.282 C 
ATOM      6  O   UNL     1     -17.103 -18.169  16.416  1.00  0.00    -0.341 OA
ENDROOT
BRANCH   1   7
ATOM      7  C   UNL     1     -15.728 -19.339  14.793  1.00  0.00     0.198 C 
BRANCH   7   8
ATOM      8  O   UNL     1     -16.780 -20.307  14.700  1.00  0.00    -0.347 OA
BRANCH   8   9
ATOM      9  C   UNL     1     -16.322 -21.592  14.270  1.00  0.00     0.281 C 
ATOM     10  C   UNL     1     -17.509 -21.471  12.191  1.00  0.00     0.150 C 
ATOM     11  C   UNL     1     -18.444 -22.628  12.578  1.00  0.00     0.174 C 
ATOM     12  O   UNL     1     -16.241 -21.602  12.835  1.00  0.00    -0.344 OA
ATOM     13  C   UNL     1     -18.586 -22.678  14.106  1.00  0.00     0.179 C 
ATOM     14  C   UNL     1     -17.217 -22.739  14.784  1.00  0.00     0.202 C 
ATOM     15  C   UNL     1     -17.249 -21.433  10.688  1.00  0.00     0.041 C 
BRANCH  11  16
ATOM     16  O   UNL     1     -19.750 -22.485  11.983  1.00  0.00    -0.388 OA
ATOM     17  H   UNL     1     -19.976 -23.368  11.632  1.00  0.00     0.211 HD
ENDBRANCH  11  16
BRANCH  13  18
ATOM     18  O   UNL     1     -19.340 -23.844  14.484  1.00  0.00    -0.387 OA
ATOM     19  H   UNL     1     -18.798 -24.610  14.207  1.00  0.00     0.211 HD
ENDBRANCH  13  18
BRANCH  14  20
ATOM     20  O   UNL     1     -16.623 -24.023  14.523  1.00  0.00    -0.385 OA
ATOM     21  H   UNL     1     -17.005 -24.302  13.665  1.00  0.00     0.211 HD
ENDBRANCH  14  20
ENDBRANCH   8   9
ENDBRANCH   7   8
ENDBRANCH   1   7
BRANCH   2  22
ATOM     22  O   UNL     1     -14.055 -20.170  17.094  1.00  0.00    -0.387 OA
ATOM     23  H   UNL     1     -14.116 -21.146  17.151  1.00  0.00     0.211 HD
ENDBRANCH   2  22
BRANCH   3  24
ATOM     24  O   UNL     1     -15.273 -20.051  19.654  1.00  0.00    -0.387 OA
ATOM     25  H   UNL     1     -15.827 -20.816  19.395  1.00  0.00     0.211 HD
ENDBRANCH   3  24
BRANCH   5  26
ATOM     26  O   UNL     1     -18.537 -17.014  17.875  1.00  0.00    -0.347 OA
BRANCH  26  27
ATOM     27  C   UNL     1     -18.712 -15.600  17.720  1.00  0.00     0.200 C 
BRANCH  27  28
ATOM     28  C   UNL     1     -18.970 -15.102  16.282  1.00  0.00     0.170 C 
BRANCH  28  29
ATOM     29  C   UNL     1     -19.460 -13.679  16.089  1.00  0.00    -0.013 A 
ATOM     30  C   UNL     1     -19.697 -13.227  14.776  1.00  0.00     0.056 A 
ATOM     31  C   UNL     1     -19.659 -12.775  17.147  1.00  0.00     0.010 A 
ATOM     32  C   UNL     1     -20.150 -11.933  14.545  1.00  0.00     0.157 A 
ATOM     33  C   UNL     1     -20.095 -11.467  16.907  1.00  0.00     0.050 A 
ATOM     34  C   UNL     1     -20.338 -11.058  15.606  1.00  0.00     0.157 A 
BRANCH  32  35
ATOM     35  O   UNL     1     -20.450 -11.492  13.285  1.00  0.00    -0.504 OA
ATOM     36  H   UNL     1     -20.092 -10.579  13.196  1.00  0.00     0.293 HD
ENDBRANCH  32  35
BRANCH  34  37
ATOM     37  O   UNL     1     -20.773  -9.784  15.376  1.00  0.00    -0.504 OA
ATOM     38  H   UNL     1     -21.748  -9.858  15.366  1.00  0.00     0.293 HD
ENDBRANCH  34  37
ENDBRANCH  28  29
BRANCH  28  39
ATOM     39  O   UNL     1     -19.845 -16.010  15.607  1.00  0.00    -0.386 OA
ATOM     40  H   UNL     1     -20.757 -15.753  15.862  1.00  0.00     0.211 HD
ENDBRANCH  28  39
ENDBRANCH  27  28
ENDBRANCH  26  27
ENDBRANCH   5  26
BRANCH   4  41
ATOM     41  O   UNL     1     -16.960 -17.781  20.097  1.00  0.00    -0.385 OA
ATOM     42  H   UNL     1     -17.714 -17.162  20.029  1.00  0.00     0.211 HD
ENDBRANCH   4  41
TORSDOF 16
ENDMDL
MODEL 6
REMARK VINA RESULT:    -7.137      1.526      1.862
REMARK INTER + INTRA:         -13.270
REMARK INTER:                 -11.868
REMARK INTRA:                  -1.402
REMARK UNBOUND:                -1.334
REMARK SMILES C[C@@H]1O[C@@H](OC[C@H]2O[C@@H](OCC(O)c3ccc(O)c(O)c3)[C@H](O)[C@@H](O)[C@@H]2O)[C@H](O)[C@H](O)[C@H]1O
REMARK SMILES IDX 7 1 26 2 24 3 22 4 9 5 8 6 6 7 5 8 4 9 2 10 32 11 3 12 30 13
REMARK SMILES IDX 28 14 1 15 33 16 31 18 29 20 27 22 25 24 10 26 11 27 12 28
REMARK SMILES IDX 14 29 21 30 15 31 19 32 16 33 17 34 20 35 18 37 13 39 23 41
REMARK H PARENT 33 17 31 19 29 21 27 23 25 25 20 36 18 38 13 40 23 42
ROOT
ATOM      1  C   UNL     1     -15.209 -18.176  16.378  1.00  0.00     0.178 C 
ATOM      2  C   UNL     1     -14.697 -19.258  17.339  1.00  0.00     0.177 C 
ATOM      3  C   UNL     1     -15.041 -18.879  18.778  1.00  0.00     0.179 C 
ATOM      4  C   UNL     1     -16.531 -18.590  18.909  1.00  0.00     0.202 C 
ATOM      5  C   UNL     1     -16.945 -17.526  17.875  1.00  0.00     0.282 C 
ATOM      6  O   UNL     1     -16.628 -17.974  16.556  1.00  0.00    -0.341 OA
ENDROOT
BRANCH   1   7
ATOM      7  C   UNL     1     -14.942 -18.581  14.919  1.00  0.00     0.198 C 
BRANCH   7   8
ATOM      8  O   UNL     1     -15.009 -20.008  14.812  1.00  0.00    -0.347 OA
BRANCH   8   9
ATOM      9  C   UNL     1     -16.168 -20.463  14.108  1.00  0.00     0.281 C 
ATOM     10  C   UNL     1     -16.745 -22.052  15.808  1.00  0.00     0.150 C 
ATOM     11  C   UNL     1     -16.480 -23.247  14.877  1.00  0.00     0.174 C 
ATOM     12  O   UNL     1     -17.149 -20.904  15.060  1.00  0.00    -0.344 OA
ATOM     13  C   UNL     1     -15.430 -22.852  13.828  1.00  0.00     0.179 C 
ATOM     14  C   UNL     1     -15.841 -21.577  13.092  1.00  0.00     0.202 C 
ATOM     15  C   UNL     1     -17.854 -22.351  16.810  1.00  0.00     0.041 C 
BRANCH  11  16
ATOM     16  O   UNL     1     -16.015 -24.402  15.605  1.00  0.00    -0.388 OA
ATOM     17  H   UNL     1     -16.581 -25.142  15.311  1.00  0.00     0.211 HD
ENDBRANCH  11  16
BRANCH  13  18
ATOM     18  O   UNL     1     -15.285 -23.913  12.867  1.00  0.00    -0.387 OA
ATOM     19  H   UNL     1     -14.677 -24.560  13.278  1.00  0.00     0.211 HD
ENDBRANCH  13  18
BRANCH  14  20
ATOM     20  O   UNL     1     -16.971 -21.866  12.251  1.00  0.00    -0.385 OA
ATOM     21  H   UNL     1     -17.423 -21.004  12.140  1.00  0.00     0.211 HD
ENDBRANCH  14  20
ENDBRANCH   8   9
ENDBRANCH   7   8
ENDBRANCH   1   7
BRANCH   2  22
ATOM     22  O   UNL     1     -13.282 -19.426  17.225  1.00  0.00    -0.387 OA
ATOM     23  H   UNL     1     -13.039 -18.994  16.380  1.00  0.00     0.211 HD
ENDBRANCH   2  22
BRANCH   3  24
ATOM     24  O   UNL     1     -14.659 -19.954  19.650  1.00  0.00    -0.387 OA
ATOM     25  H   UNL     1     -15.478 -20.197  20.128  1.00  0.00     0.211 HD
ENDBRANCH   3  24
BRANCH   5  26
ATOM     26  O   UNL     1     -18.360 -17.367  18.022  1.00  0.00    -0.347 OA
BRANCH  26  27
ATOM     27  C   UNL     1     -18.834 -16.023  17.873  1.00  0.00     0.200 C 
BRANCH  27  28
ATOM     28  C   UNL     1     -18.976 -15.512  16.422  1.00  0.00     0.170 C 
BRANCH  28  29
ATOM     29  C   UNL     1     -19.405 -14.072  16.205  1.00  0.00    -0.013 A 
ATOM     30  C   UNL     1     -19.734 -13.665  14.897  1.00  0.00     0.056 A 
ATOM     31  C   UNL     1     -19.461 -13.114  17.231  1.00  0.00     0.010 A 
ATOM     32  C   UNL     1     -20.137 -12.359  14.644  1.00  0.00     0.157 A 
ATOM     33  C   UNL     1     -19.847 -11.795  16.967  1.00  0.00     0.050 A 
ATOM     34  C   UNL     1     -20.182 -11.429  15.674  1.00  0.00     0.157 A 
BRANCH  32  35
ATOM     35  O   UNL     1     -20.523 -11.956  13.394  1.00  0.00    -0.504 OA
ATOM     36  H   UNL     1     -21.085 -11.154  13.501  1.00  0.00     0.293 HD
ENDBRANCH  32  35
BRANCH  34  37
ATOM     37  O   UNL     1     -20.568 -10.144  15.422  1.00  0.00    -0.504 OA
ATOM     38  H   UNL     1     -20.439  -9.679  16.272  1.00  0.00     0.293 HD
ENDBRANCH  34  37
ENDBRANCH  28  29
BRANCH  28  39
ATOM     39  O   UNL     1     -19.832 -16.388  15.684  1.00  0.00    -0.386 OA
ATOM     40  H   UNL     1     -20.491 -16.733  16.325  1.00  0.00     0.211 HD
ENDBRANCH  28  39
ENDBRANCH  27  28
ENDBRANCH  26  27
ENDBRANCH   5  26
BRANCH   4  41
ATOM     41  O   UNL     1     -16.803 -18.155  20.251  1.00  0.00    -0.385 OA
ATOM     42  H   UNL     1     -17.028 -18.969  20.744  1.00  0.00     0.211 HD
ENDBRANCH   4  41
TORSDOF 16
ENDMDL
MODEL 7
REMARK VINA RESULT:    -7.133      3.035      5.784
REMARK INTER + INTRA:         -13.263
REMARK INTER:                 -11.914
REMARK INTRA:                  -1.349
REMARK UNBOUND:                -1.334
REMARK SMILES C[C@@H]1O[C@@H](OC[C@H]2O[C@@H](OCC(O)c3ccc(O)c(O)c3)[C@H](O)[C@@H](O)[C@@H]2O)[C@H](O)[C@H](O)[C@H]1O
REMARK SMILES IDX 7 1 26 2 24 3 22 4 9 5 8 6 6 7 5 8 4 9 2 10 32 11 3 12 30 13
REMARK SMILES IDX 28 14 1 15 33 16 31 18 29 20 27 22 25 24 10 26 11 27 12 28
REMARK SMILES IDX 14 29 21 30 15 31 19 32 16 33 17 34 20 35 18 37 13 39 23 41
REMARK H PARENT 33 17 31 19 29 21 27 23 25 25 20 36 18 38 13 40 23 42
ROOT
ATOM      1  C   UNL     1     -16.632 -19.424  19.599  1.00  0.00     0.178 C 
ATOM      2  C   UNL     1     -15.823 -20.175  18.532  1.00  0.00     0.177 C 
ATOM      3  C   UNL     1     -16.445 -19.949  17.155  1.00  0.00     0.179 C 
ATOM      4  C   UNL     1     -16.597 -18.458  16.880  1.00  0.00     0.202 C 
ATOM      5  C   UNL     1     -17.384 -17.797  18.028  1.00  0.00     0.282 C 
ATOM      6  O   UNL     1     -16.717 -18.019  19.272  1.00  0.00    -0.341 OA
ENDROOT
BRANCH   1   7
ATOM      7  C   UNL     1     -15.974 -19.576  20.980  1.00  0.00     0.198 C 
BRANCH   7   8
ATOM      8  O   UNL     1     -16.570 -20.687  21.660  1.00  0.00    -0.347 OA
BRANCH   8   9
ATOM      9  C   UNL     1     -15.606 -21.567  22.246  1.00  0.00     0.281 C 
ATOM     10  C   UNL     1     -16.819 -23.536  21.617  1.00  0.00     0.150 C 
ATOM     11  C   UNL     1     -17.118 -23.903  23.081  1.00  0.00     0.174 C 
ATOM     12  O   UNL     1     -15.597 -22.804  21.515  1.00  0.00    -0.344 OA
ATOM     13  C   UNL     1     -17.149 -22.623  23.929  1.00  0.00     0.179 C 
ATOM     14  C   UNL     1     -15.867 -21.811  23.747  1.00  0.00     0.202 C 
ATOM     15  C   UNL     1     -16.676 -24.777  20.742  1.00  0.00     0.041 C 
BRANCH  11  16
ATOM     16  O   UNL     1     -18.376 -24.594  23.215  1.00  0.00    -0.388 OA
ATOM     17  H   UNL     1     -19.044 -24.002  22.819  1.00  0.00     0.211 HD
ENDBRANCH  11  16
BRANCH  13  18
ATOM     18  O   UNL     1     -17.281 -22.969  25.320  1.00  0.00    -0.387 OA
ATOM     19  H   UNL     1     -16.412 -22.773  25.725  1.00  0.00     0.211 HD
ENDBRANCH  13  18
BRANCH  14  20
ATOM     20  O   UNL     1     -14.774 -22.518  24.359  1.00  0.00    -0.385 OA
ATOM     21  H   UNL     1     -15.140 -22.852  25.205  1.00  0.00     0.211 HD
ENDBRANCH  14  20
ENDBRANCH   8   9
ENDBRANCH   7   8
ENDBRANCH   1   7
BRANCH   2  22
ATOM     22  O   UNL     1     -15.785 -21.578  18.802  1.00  0.00    -0.387 OA
ATOM     23  H   UNL     1     -16.398 -21.712  19.554  1.00  0.00     0.211 HD
ENDBRANCH   2  22
BRANCH   3  24
ATOM     24  O   UNL     1     -15.611 -20.561  16.159  1.00  0.00    -0.387 OA
ATOM     25  H   UNL     1     -15.093 -21.238  16.641  1.00  0.00     0.211 HD
ENDBRANCH   3  24
BRANCH   5  26
ATOM     26  O   UNL     1     -17.421 -16.400  17.723  1.00  0.00    -0.347 OA
BRANCH  26  27
ATOM     27  C   UNL     1     -18.736 -15.844  17.601  1.00  0.00     0.200 C 
BRANCH  27  28
ATOM     28  C   UNL     1     -19.112 -15.295  16.207  1.00  0.00     0.170 C 
BRANCH  28  29
ATOM     29  C   UNL     1     -19.514 -13.836  16.092  1.00  0.00    -0.013 A 
ATOM     30  C   UNL     1     -19.770 -13.314  14.809  1.00  0.00     0.056 A 
ATOM     31  C   UNL     1     -19.611 -12.967  17.193  1.00  0.00     0.010 A 
ATOM     32  C   UNL     1     -20.144 -11.984  14.649  1.00  0.00     0.157 A 
ATOM     33  C   UNL     1     -19.967 -11.625  17.024  1.00  0.00     0.050 A 
ATOM     34  C   UNL     1     -20.232 -11.145  15.751  1.00  0.00     0.157 A 
BRANCH  32  35
ATOM     35  O   UNL     1     -20.461 -11.471  13.421  1.00  0.00    -0.504 OA
ATOM     36  H   UNL     1     -19.659 -11.018  13.071  1.00  0.00     0.293 HD
ENDBRANCH  32  35
BRANCH  34  37
ATOM     37  O   UNL     1     -20.589  -9.837  15.591  1.00  0.00    -0.504 OA
ATOM     38  H   UNL     1     -20.135  -9.559  14.771  1.00  0.00     0.293 HD
ENDBRANCH  34  37
ENDBRANCH  28  29
BRANCH  28  39
ATOM     39  O   UNL     1     -20.122 -16.121  15.620  1.00  0.00    -0.386 OA
ATOM     40  H   UNL     1     -20.515 -16.639  16.356  1.00  0.00     0.211 HD
ENDBRANCH  28  39
ENDBRANCH  27  28
ENDBRANCH  26  27
ENDBRANCH   5  26
BRANCH   4  41
ATOM     41  O   UNL     1     -17.261 -18.285  15.617  1.00  0.00    -0.385 OA
ATOM     42  H   UNL     1     -18.058 -18.850  15.668  1.00  0.00     0.211 HD
ENDBRANCH   4  41
TORSDOF 16
ENDMDL
MODEL 8
REMARK VINA RESULT:    -7.076      2.452      3.680
REMARK INTER + INTRA:         -13.168
REMARK INTER:                 -11.978
REMARK INTRA:                  -1.190
REMARK UNBOUND:                -1.334
REMARK SMILES C[C@@H]1O[C@@H](OC[C@H]2O[C@@H](OCC(O)c3ccc(O)c(O)c3)[C@H](O)[C@@H](O)[C@@H]2O)[C@H](O)[C@H](O)[C@H]1O
REMARK SMILES IDX 7 1 26 2 24 3 22 4 9 5 8 6 6 7 5 8 4 9 2 10 32 11 3 12 30 13
REMARK SMILES IDX 28 14 1 15 33 16 31 18 29 20 27 22 25 24 10 26 11 27 12 28
REMARK SMILES IDX 14 29 21 30 15 31 19 32 16 33 17 34 20 35 18 37 13 39 23 41
REMARK H PARENT 33 17 31 19 29 21 27 23 25 25 20 36 18 38 13 40 23 42
ROOT
ATOM      1  C   UNL     1     -16.388 -19.395  16.455  1.00  0.00     0.178 C 
ATOM      2  C   UNL     1     -16.726 -20.677  17.230  1.00  0.00     0.177 C 
ATOM      3  C   UNL     1     -17.131 -20.326  18.661  1.00  0.00     0.179 C 
ATOM      4  C   UNL     1     -18.250 -19.292  18.657  1.00  0.00     0.202 C 
ATOM      5  C   UNL     1     -17.824 -18.071  17.820  1.00  0.00     0.282 C 
ATOM      6  O   UNL     1     -17.502 -18.477  16.488  1.00  0.00    -0.341 OA
ENDROOT
BRANCH   1   7
ATOM      7  C   UNL     1     -16.055 -19.724  14.991  1.00  0.00     0.198 C 
BRANCH   7   8
ATOM      8  O   UNL     1     -14.698 -20.177  14.911  1.00  0.00    -0.347 OA
BRANCH   8   9
ATOM      9  C   UNL     1     -13.751 -19.180  15.303  1.00  0.00     0.281 C 
ATOM     10  C   UNL     1     -12.152 -19.854  13.649  1.00  0.00     0.150 C 
ATOM     11  C   UNL     1     -11.149 -20.330  14.713  1.00  0.00     0.174 C 
ATOM     12  O   UNL     1     -12.972 -18.800  14.157  1.00  0.00    -0.344 OA
ATOM     13  C   UNL     1     -11.912 -20.761  15.974  1.00  0.00     0.179 C 
ATOM     14  C   UNL     1     -12.844 -19.650  16.459  1.00  0.00     0.202 C 
ATOM     15  C   UNL     1     -11.447 -19.318  12.407  1.00  0.00     0.041 C 
BRANCH  11  16
ATOM     16  O   UNL     1     -10.349 -21.432  14.241  1.00  0.00    -0.388 OA
ATOM     17  H   UNL     1     -10.537 -22.173  14.849  1.00  0.00     0.211 HD
ENDBRANCH  11  16
BRANCH  13  18
ATOM     18  O   UNL     1     -10.976 -21.069  17.023  1.00  0.00    -0.387 OA
ATOM     19  H   UNL     1     -10.201 -20.493  16.863  1.00  0.00     0.211 HD
ENDBRANCH  13  18
BRANCH  14  20
ATOM     20  O   UNL     1     -12.051 -18.567  16.976  1.00  0.00    -0.385 OA
ATOM     21  H   UNL     1     -12.530 -17.758  16.701  1.00  0.00     0.211 HD
ENDBRANCH  14  20
ENDBRANCH   8   9
ENDBRANCH   7   8
ENDBRANCH   1   7
BRANCH   2  22
ATOM     22  O   UNL     1     -15.612 -21.571  17.266  1.00  0.00    -0.387 OA
ATOM     23  H   UNL     1     -15.274 -21.599  16.347  1.00  0.00     0.211 HD
ENDBRANCH   2  22
BRANCH   3  24
ATOM     24  O   UNL     1     -17.554 -21.522  19.334  1.00  0.00    -0.387 OA
ATOM     25  H   UNL     1     -18.412 -21.292  19.745  1.00  0.00     0.211 HD
ENDBRANCH   3  24
BRANCH   5  26
ATOM     26  O   UNL     1     -18.950 -17.188  17.815  1.00  0.00    -0.347 OA
BRANCH  26  27
ATOM     27  C   UNL     1     -18.639 -15.817  17.539  1.00  0.00     0.200 C 
BRANCH  27  28
ATOM     28  C   UNL     1     -19.083 -15.286  16.159  1.00  0.00     0.170 C 
BRANCH  28  29
ATOM     29  C   UNL     1     -19.484 -13.826  16.043  1.00  0.00    -0.013 A 
ATOM     30  C   UNL     1     -19.802 -13.321  14.767  1.00  0.00     0.056 A 
ATOM     31  C   UNL     1     -19.522 -12.942  17.135  1.00  0.00     0.010 A 
ATOM     32  C   UNL     1     -20.179 -11.993  14.607  1.00  0.00     0.157 A 
ATOM     33  C   UNL     1     -19.881 -11.600  16.965  1.00  0.00     0.050 A 
ATOM     34  C   UNL     1     -20.208 -11.137  15.700  1.00  0.00     0.157 A 
BRANCH  32  35
ATOM     35  O   UNL     1     -20.555 -11.495  13.389  1.00  0.00    -0.504 OA
ATOM     36  H   UNL     1     -19.734 -11.311  12.876  1.00  0.00     0.293 HD
ENDBRANCH  32  35
BRANCH  34  37
ATOM     37  O   UNL     1     -20.567  -9.830  15.539  1.00  0.00    -0.504 OA
ATOM     38  H   UNL     1     -21.159  -9.645  16.296  1.00  0.00     0.293 HD
ENDBRANCH  34  37
ENDBRANCH  28  29
BRANCH  28  39
ATOM     39  O   UNL     1     -20.124 -16.116  15.635  1.00  0.00    -0.386 OA
ATOM     40  H   UNL     1     -20.388 -15.716  14.778  1.00  0.00     0.211 HD
ENDBRANCH  28  39
ENDBRANCH  27  28
ENDBRANCH  26  27
ENDBRANCH   5  26
BRANCH   4  41
ATOM     41  O   UNL     1     -18.545 -18.925  20.014  1.00  0.00    -0.385 OA
ATOM     42  H   UNL     1     -18.840 -17.993  19.969  1.00  0.00     0.211 HD
ENDBRANCH   4  41
TORSDOF 16
ENDMDL
MODEL 9
REMARK VINA RESULT:    -7.005      2.572      3.621
REMARK INTER + INTRA:         -13.050
REMARK INTER:                 -12.148
REMARK INTRA:                  -0.901
REMARK UNBOUND:                -1.334
REMARK SMILES C[C@@H]1O[C@@H](OC[C@H]2O[C@@H](OCC(O)c3ccc(O)c(O)c3)[C@H](O)[C@@H](O)[C@@H]2O)[C@H](O)[C@H](O)[C@H]1O
REMARK SMILES IDX 7 1 26 2 24 3 22 4 9 5 8 6 6 7 5 8 4 9 2 10 32 11 3 12 30 13
REMARK SMILES IDX 28 14 1 15 33 16 31 18 29 20 27 22 25 24 10 26 11 27 12 28
REMARK SMILES IDX 14 29 21 30 15 31 19 32 16 33 17 34 20 35 18 37 13 39 23 41
REMARK H PARENT 33 17 31 19 29 21 27 23 25 25 20 36 18 38 13 40 23 42
ROOT
ATOM      1  C   UNL     1     -16.825 -20.505  17.260  1.00  0.00     0.178 C 
ATOM      2  C   UNL     1     -16.410 -20.902  18.684  1.00  0.00     0.177 C 
ATOM      3  C   UNL     1     -16.055 -19.652  19.488  1.00  0.00     0.179 C 
ATOM      4  C   UNL     1     -17.197 -18.645  19.434  1.00  0.00     0.202 C 
ATOM      5  C   UNL     1     -17.559 -18.351  17.966  1.00  0.00     0.282 C 
ATOM      6  O   UNL     1     -17.917 -19.561  17.296  1.00  0.00    -0.341 OA
ENDROOT
BRANCH   1   7
ATOM      7  C   UNL     1     -17.261 -21.744  16.461  1.00  0.00     0.198 C 
BRANCH   7   8
ATOM      8  O   UNL     1     -17.647 -22.777  17.376  1.00  0.00    -0.347 OA
BRANCH   8   9
ATOM      9  C   UNL     1     -19.047 -22.772  17.666  1.00  0.00     0.281 C 
ATOM     10  C   UNL     1     -18.876 -24.616  19.189  1.00  0.00     0.150 C 
ATOM     11  C   UNL     1     -19.705 -25.536  18.276  1.00  0.00     0.174 C 
ATOM     12  O   UNL     1     -19.248 -23.249  19.007  1.00  0.00    -0.344 OA
ATOM     13  C   UNL     1     -19.535 -25.090  16.817  1.00  0.00     0.179 C 
ATOM     14  C   UNL     1     -19.861 -23.605  16.654  1.00  0.00     0.202 C 
ATOM     15  C   UNL     1     -19.084 -24.947  20.663  1.00  0.00     0.041 C 
BRANCH  11  16
ATOM     16  O   UNL     1     -19.307 -26.916  18.402  1.00  0.00    -0.388 OA
ATOM     17  H   UNL     1     -19.918 -27.418  17.829  1.00  0.00     0.211 HD
ENDBRANCH  11  16
BRANCH  13  18
ATOM     18  O   UNL     1     -20.419 -25.851  15.973  1.00  0.00    -0.387 OA
ATOM     19  H   UNL     1     -20.561 -25.302  15.176  1.00  0.00     0.211 HD
ENDBRANCH  13  18
BRANCH  14  20
ATOM     20  O   UNL     1     -21.275 -23.414  16.835  1.00  0.00    -0.385 OA
ATOM     21  H   UNL     1     -21.616 -24.303  17.069  1.00  0.00     0.211 HD
ENDBRANCH  14  20
ENDBRANCH   8   9
ENDBRANCH   7   8
ENDBRANCH   1   7
BRANCH   2  22
ATOM     22  O   UNL     1     -15.285 -21.783  18.670  1.00  0.00    -0.387 OA
ATOM     23  H   UNL     1     -15.039 -21.900  19.611  1.00  0.00     0.211 HD
ENDBRANCH   2  22
BRANCH   3  24
ATOM     24  O   UNL     1     -15.784 -20.031  20.846  1.00  0.00    -0.387 OA
ATOM     25  H   UNL     1     -15.749 -21.010  20.835  1.00  0.00     0.211 HD
ENDBRANCH   3  24
BRANCH   5  26
ATOM     26  O   UNL     1     -18.675 -17.455  18.009  1.00  0.00    -0.347 OA
BRANCH  26  27
ATOM     27  C   UNL     1     -18.377 -16.103  17.640  1.00  0.00     0.200 C 
BRANCH  27  28
ATOM     28  C   UNL     1     -18.947 -15.629  16.286  1.00  0.00     0.170 C 
BRANCH  28  29
ATOM     29  C   UNL     1     -19.372 -14.178  16.151  1.00  0.00    -0.013 A 
ATOM     30  C   UNL     1     -19.711 -13.699  14.870  1.00  0.00     0.056 A 
ATOM     31  C   UNL     1     -19.412 -13.277  17.228  1.00  0.00     0.010 A 
ATOM     32  C   UNL     1     -20.109 -12.379  14.693  1.00  0.00     0.157 A 
ATOM     33  C   UNL     1     -19.793 -11.944  17.040  1.00  0.00     0.050 A 
ATOM     34  C   UNL     1     -20.140 -11.506  15.772  1.00  0.00     0.157 A 
BRANCH  32  35
ATOM     35  O   UNL     1     -20.505 -11.907  13.471  1.00  0.00    -0.504 OA
ATOM     36  H   UNL     1     -20.518 -10.923  13.522  1.00  0.00     0.293 HD
ENDBRANCH  32  35
BRANCH  34  37
ATOM     37  O   UNL     1     -20.521 -10.207  15.594  1.00  0.00    -0.504 OA
ATOM     38  H   UNL     1     -19.771  -9.683  15.941  1.00  0.00     0.293 HD
ENDBRANCH  34  37
ENDBRANCH  28  29
BRANCH  28  39
ATOM     39  O   UNL     1     -20.023 -16.486  15.889  1.00  0.00    -0.386 OA
ATOM     40  H   UNL     1     -20.839 -16.097  16.272  1.00  0.00     0.211 HD
ENDBRANCH  28  39
ENDBRANCH  27  28
ENDBRANCH  26  27
ENDBRANCH   5  26
BRANCH   4  41
ATOM     41  O   UNL     1     -16.796 -17.452  20.127  1.00  0.00    -0.385 OA
ATOM     42  H   UNL     1     -16.509 -17.754  21.012  1.00  0.00     0.211 HD
ENDBRANCH   4  41
TORSDOF 16
ENDMDL
