REMARK SMILES Cn1ccc2ccc(-c3cn(-c4ccc(O)cc4)nn3)nc2c1=O
REMARK SMILES IDX 12 1 13 2 14 3 15 4 17 5 18 6 11 7 9 8 10 9 20 10 19 11 8 12
REMARK SMILES IDX 6 13 7 14 5 15 4 16 22 17 21 18 3 19 23 20 2 21 24 22 1 23
REMARK SMILES IDX 16 24
REMARK H PARENT 16 25
ROOT
ATOM      1  C   UNL     1     -19.858 -13.456  16.170  1.00  0.00     0.067 A 
ATOM      2  C   UNL     1     -19.896 -13.048  14.846  1.00  0.00     0.032 A 
ATOM      3  C   UNL     1     -20.202 -11.733  14.538  1.00  0.00     0.048 A 
ATOM      4  C   UNL     1     -20.459 -10.824  15.556  1.00  0.00     0.115 A 
ATOM      5  C   UNL     1     -20.427 -11.237  16.880  1.00  0.00     0.048 A 
ATOM      6  C   UNL     1     -20.137 -12.552  17.184  1.00  0.00     0.032 A 
ENDROOT
BRANCH   1   7
ATOM      7  N   UNL     1     -19.496 -14.795  16.495  1.00  0.00    -0.220 N 
ATOM      8  C   UNL     1     -18.768 -16.620  17.398  1.00  0.00     0.131 A 
ATOM      9  C   UNL     1     -18.858 -15.267  17.588  1.00  0.00     0.147 A 
ATOM     10  N   UNL     1     -19.348 -16.915  16.196  1.00  0.00    -0.128 NA
ATOM     11  N   UNL     1     -19.804 -15.812  15.650  1.00  0.00    -0.062 NA
BRANCH   8  12
ATOM     12  C   UNL     1     -18.203 -17.655  18.272  1.00  0.00     0.093 A 
ATOM     13  C   UNL     1     -17.043 -18.366  20.223  1.00  0.00     0.013 A 
ATOM     14  C   UNL     1     -17.588 -17.336  19.478  1.00  0.00     0.031 A 
ATOM     15  C   UNL     1     -17.113 -19.687  19.771  1.00  0.00     0.007 A 
ATOM     16  C   UNL     1     -16.566 -20.815  20.470  1.00  0.00     0.028 A 
ATOM     17  C   UNL     1     -17.761 -19.907  18.548  1.00  0.00     0.136 A 
ATOM     18  N   UNL     1     -18.297 -18.913  17.814  1.00  0.00    -0.240 NA
ATOM     19  C   UNL     1     -16.679 -22.035  19.955  1.00  0.00     0.089 A 
ATOM     20  C   UNL     1     -17.888 -21.261  17.988  1.00  0.00     0.276 A 
ATOM     21  N   UNL     1     -17.310 -22.273  18.757  1.00  0.00    -0.317 N 
ATOM     22  O   UNL     1     -18.472 -21.535  16.956  1.00  0.00    -0.267 OA
ATOM     23  C   UNL     1     -17.391 -23.637  18.238  1.00  0.00     0.153 C 
ENDBRANCH   8  12
ENDBRANCH   1   7
BRANCH   4  24
ATOM     24  O   UNL     1     -20.752  -9.524  15.289  1.00  0.00    -0.508 OA
ATOM     25  H   UNL     1     -20.932  -8.895  16.032  1.00  0.00     0.293 HD
ENDBRANCH   4  24
TORSDOF 3
