MODEL 1
REMARK VINA RESULT:   -11.062      0.000      0.000
REMARK INTER + INTRA:         -13.052
REMARK INTER:                 -12.678
REMARK INTRA:                  -0.374
REMARK UNBOUND:                -0.374
REMARK SMILES Cn1ccc2ccc(-c3cn(-c4ccc(O)cc4)nn3)nc2c1=O
REMARK SMILES IDX 12 1 13 2 14 3 15 4 17 5 18 6 11 7 9 8 10 9 20 10 19 11 8 12
REMARK SMILES IDX 6 13 7 14 5 15 4 16 22 17 21 18 3 19 23 20 2 21 24 22 1 23
REMARK SMILES IDX 16 24
REMARK H PARENT 16 25
ROOT
ATOM      1  C   UNL     1     -19.670 -13.584  16.104  1.00  0.00     0.067 A 
ATOM      2  C   UNL     1     -19.815 -12.620  17.089  1.00  0.00     0.032 A 
ATOM      3  C   UNL     1     -20.202 -11.335  16.746  1.00  0.00     0.048 A 
ATOM      4  C   UNL     1     -20.455 -11.019  15.417  1.00  0.00     0.115 A 
ATOM      5  C   UNL     1     -20.303 -11.984  14.432  1.00  0.00     0.048 A 
ATOM      6  C   UNL     1     -19.901 -13.260  14.775  1.00  0.00     0.032 A 
ENDROOT
BRANCH   1   7
ATOM      7  N   UNL     1     -19.320 -14.919  16.456  1.00  0.00    -0.220 N 
ATOM      8  C   UNL     1     -18.606 -16.731  17.396  1.00  0.00     0.131 A 
ATOM      9  C   UNL     1     -18.683 -15.373  17.557  1.00  0.00     0.147 A 
ATOM     10  N   UNL     1     -19.192 -17.046  16.202  1.00  0.00    -0.128 NA
ATOM     11  N   UNL     1     -19.640 -15.951  15.634  1.00  0.00    -0.062 NA
BRANCH   8  12
ATOM     12  C   UNL     1     -18.048 -17.752  18.291  1.00  0.00     0.093 A 
ATOM     13  C   UNL     1     -16.804 -18.432  20.200  1.00  0.00     0.013 A 
ATOM     14  C   UNL     1     -17.333 -17.410  19.433  1.00  0.00     0.031 A 
ATOM     15  C   UNL     1     -16.987 -19.768  19.832  1.00  0.00     0.007 A 
ATOM     16  C   UNL     1     -16.465 -20.890  20.558  1.00  0.00     0.028 A 
ATOM     17  C   UNL     1     -17.730 -20.010  18.668  1.00  0.00     0.136 A 
ATOM     18  N   UNL     1     -18.252 -19.024  17.914  1.00  0.00    -0.240 NA
ATOM     19  C   UNL     1     -16.689 -22.126  20.124  1.00  0.00     0.089 A 
ATOM     20  C   UNL     1     -17.980 -21.381  18.198  1.00  0.00     0.276 A 
ATOM     21  N   UNL     1     -17.415 -22.386  18.986  1.00  0.00    -0.317 N 
ATOM     22  O   UNL     1     -18.649 -21.672  17.224  1.00  0.00    -0.267 OA
ATOM     23  C   UNL     1     -17.616 -23.768  18.554  1.00  0.00     0.153 C 
ENDBRANCH   8  12
ENDBRANCH   1   7
BRANCH   4  24
ATOM     24  O   UNL     1     -20.847  -9.771  15.047  1.00  0.00    -0.508 OA
ATOM     25  H   UNL     1     -20.190  -9.142  14.659  1.00  0.00     0.293 HD
ENDBRANCH   4  24
TORSDOF 3
ENDMDL
MODEL 2
REMARK VINA RESULT:   -10.454      2.016      2.320
REMARK INTER + INTRA:         -12.355
REMARK INTER:                 -11.987
REMARK INTRA:                  -0.368
REMARK UNBOUND:                -0.374
REMARK SMILES Cn1ccc2ccc(-c3cn(-c4ccc(O)cc4)nn3)nc2c1=O
REMARK SMILES IDX 12 1 13 2 14 3 15 4 17 5 18 6 11 7 9 8 10 9 20 10 19 11 8 12
REMARK SMILES IDX 6 13 7 14 5 15 4 16 22 17 21 18 3 19 23 20 2 21 24 22 1 23
REMARK SMILES IDX 16 24
REMARK H PARENT 16 25
ROOT
ATOM      1  C   UNL     1     -19.710 -13.427  16.100  1.00  0.00     0.067 A 
ATOM      2  C   UNL     1     -19.836 -12.474  17.098  1.00  0.00     0.032 A 
ATOM      3  C   UNL     1     -20.270 -11.197  16.781  1.00  0.00     0.048 A 
ATOM      4  C   UNL     1     -20.589 -10.879  15.467  1.00  0.00     0.115 A 
ATOM      5  C   UNL     1     -20.455 -11.834  14.470  1.00  0.00     0.048 A 
ATOM      6  C   UNL     1     -20.008 -13.101  14.786  1.00  0.00     0.032 A 
ENDROOT
BRANCH   1   7
ATOM      7  N   UNL     1     -19.311 -14.755  16.428  1.00  0.00    -0.220 N 
ATOM      8  C   UNL     1     -18.484 -16.550  17.305  1.00  0.00     0.131 A 
ATOM      9  C   UNL     1     -18.557 -15.192  17.459  1.00  0.00     0.147 A 
ATOM     10  N   UNL     1     -19.191 -16.884  16.184  1.00  0.00    -0.128 NA
ATOM     11  N   UNL     1     -19.707 -15.799  15.655  1.00  0.00    -0.062 NA
BRANCH   8  12
ATOM     12  C   UNL     1     -17.825 -17.557  18.146  1.00  0.00     0.093 A 
ATOM     13  C   UNL     1     -17.757 -19.032  20.010  1.00  0.00     0.013 A 
ATOM     14  C   UNL     1     -18.463 -18.123  19.244  1.00  0.00     0.031 A 
ATOM     15  C   UNL     1     -16.440 -19.369  19.683  1.00  0.00     0.007 A 
ATOM     16  C   UNL     1     -15.629 -20.291  20.426  1.00  0.00     0.028 A 
ATOM     17  C   UNL     1     -15.888 -18.751  18.553  1.00  0.00     0.136 A 
ATOM     18  N   UNL     1     -16.566 -17.865  17.798  1.00  0.00    -0.240 NA
ATOM     19  C   UNL     1     -14.383 -20.542  20.038  1.00  0.00     0.089 A 
ATOM     20  C   UNL     1     -14.510 -19.039  18.126  1.00  0.00     0.276 A 
ATOM     21  N   UNL     1     -13.822 -19.947  18.933  1.00  0.00    -0.317 N 
ATOM     22  O   UNL     1     -13.978 -18.576  17.134  1.00  0.00    -0.267 OA
ATOM     23  C   UNL     1     -12.441 -20.256  18.565  1.00  0.00     0.153 C 
ENDBRANCH   8  12
ENDBRANCH   1   7
BRANCH   4  24
ATOM     24  O   UNL     1     -21.027  -9.640  15.124  1.00  0.00    -0.508 OA
ATOM     25  H   UNL     1     -21.474  -9.069  15.798  1.00  0.00     0.293 HD
ENDBRANCH   4  24
TORSDOF 3
ENDMDL
MODEL 3
REMARK VINA RESULT:    -9.107      2.225      2.555
REMARK INTER + INTRA:         -10.811
REMARK INTER:                 -10.419
REMARK INTRA:                  -0.393
REMARK UNBOUND:                -0.374
REMARK SMILES Cn1ccc2ccc(-c3cn(-c4ccc(O)cc4)nn3)nc2c1=O
REMARK SMILES IDX 12 1 13 2 14 3 15 4 17 5 18 6 11 7 9 8 10 9 20 10 19 11 8 12
REMARK SMILES IDX 6 13 7 14 5 15 4 16 22 17 21 18 3 19 23 20 2 21 24 22 1 23
REMARK SMILES IDX 16 24
REMARK H PARENT 16 25
ROOT
ATOM      1  C   UNL     1     -19.432 -13.654  16.602  1.00  0.00     0.067 A 
ATOM      2  C   UNL     1     -19.672 -13.734  15.240  1.00  0.00     0.032 A 
ATOM      3  C   UNL     1     -20.158 -12.630  14.560  1.00  0.00     0.048 A 
ATOM      4  C   UNL     1     -20.392 -11.443  15.241  1.00  0.00     0.115 A 
ATOM      5  C   UNL     1     -20.157 -11.368  16.607  1.00  0.00     0.048 A 
ATOM      6  C   UNL     1     -19.687 -12.475  17.285  1.00  0.00     0.032 A 
ENDROOT
BRANCH   1   7
ATOM      7  N   UNL     1     -18.886 -14.771  17.298  1.00  0.00    -0.220 N 
ATOM      8  C   UNL     1     -17.916 -16.607  17.903  1.00  0.00     0.131 A 
ATOM      9  C   UNL     1     -18.218 -15.839  16.810  1.00  0.00     0.147 A 
ATOM     10  N   UNL     1     -18.418 -15.979  19.009  1.00  0.00    -0.128 NA
ATOM     11  N   UNL     1     -18.996 -14.857  18.648  1.00  0.00    -0.062 NA
BRANCH   8  12
ATOM     12  C   UNL     1     -17.170 -17.868  17.987  1.00  0.00     0.093 A 
ATOM     13  C   UNL     1     -15.878 -19.480  19.166  1.00  0.00     0.013 A 
ATOM     14  C   UNL     1     -16.601 -18.302  19.180  1.00  0.00     0.031 A 
ATOM     15  C   UNL     1     -15.728 -20.210  17.982  1.00  0.00     0.007 A 
ATOM     16  C   UNL     1     -14.986 -21.434  17.871  1.00  0.00     0.028 A 
ATOM     17  C   UNL     1     -16.346 -19.695  16.835  1.00  0.00     0.136 A 
ATOM     18  N   UNL     1     -17.055 -18.549  16.837  1.00  0.00    -0.240 NA
ATOM     19  C   UNL     1     -14.897 -22.053  16.698  1.00  0.00     0.089 A 
ATOM     20  C   UNL     1     -16.248 -20.389  15.542  1.00  0.00     0.276 A 
ATOM     21  N   UNL     1     -15.495 -21.565  15.561  1.00  0.00    -0.317 N 
ATOM     22  O   UNL     1     -16.792 -20.027  14.515  1.00  0.00    -0.267 OA
ATOM     23  C   UNL     1     -15.350 -22.286  14.298  1.00  0.00     0.153 C 
ENDBRANCH   8  12
ENDBRANCH   1   7
BRANCH   4  24
ATOM     24  O   UNL     1     -20.858 -10.338  14.602  1.00  0.00    -0.508 OA
ATOM     25  H   UNL     1     -20.904 -10.320  13.614  1.00  0.00     0.293 HD
ENDBRANCH   4  24
TORSDOF 3
ENDMDL
MODEL 4
REMARK VINA RESULT:    -8.744      1.968      2.480
REMARK INTER + INTRA:         -10.396
REMARK INTER:                 -10.026
REMARK INTRA:                  -0.370
REMARK UNBOUND:                -0.374
REMARK SMILES Cn1ccc2ccc(-c3cn(-c4ccc(O)cc4)nn3)nc2c1=O
REMARK SMILES IDX 12 1 13 2 14 3 15 4 17 5 18 6 11 7 9 8 10 9 20 10 19 11 8 12
REMARK SMILES IDX 6 13 7 14 5 15 4 16 22 17 21 18 3 19 23 20 2 21 24 22 1 23
REMARK SMILES IDX 16 24
REMARK H PARENT 16 25
ROOT
ATOM      1  C   UNL     1     -19.369 -13.654  16.594  1.00  0.00     0.067 A 
ATOM      2  C   UNL     1     -19.660 -13.681  15.239  1.00  0.00     0.032 A 
ATOM      3  C   UNL     1     -20.199 -12.561  14.627  1.00  0.00     0.048 A 
ATOM      4  C   UNL     1     -20.436 -11.412  15.370  1.00  0.00     0.115 A 
ATOM      5  C   UNL     1     -20.150 -11.391  16.727  1.00  0.00     0.048 A 
ATOM      6  C   UNL     1     -19.627 -12.513  17.338  1.00  0.00     0.032 A 
ENDROOT
BRANCH   1   7
ATOM      7  N   UNL     1     -18.769 -14.786  17.218  1.00  0.00    -0.220 N 
ATOM      8  C   UNL     1     -17.654 -16.569  17.722  1.00  0.00     0.131 A 
ATOM      9  C   UNL     1     -17.928 -15.705  16.696  1.00  0.00     0.147 A 
ATOM     10  N   UNL     1     -18.344 -16.145  18.824  1.00  0.00    -0.128 NA
ATOM     11  N   UNL     1     -19.012 -15.055  18.526  1.00  0.00    -0.062 NA
BRANCH   8  12
ATOM     12  C   UNL     1     -16.774 -17.743  17.751  1.00  0.00     0.093 A 
ATOM     13  C   UNL     1     -15.160 -19.194  16.778  1.00  0.00     0.013 A 
ATOM     14  C   UNL     1     -15.926 -18.046  16.691  1.00  0.00     0.031 A 
ATOM     15  C   UNL     1     -15.240 -20.021  17.902  1.00  0.00     0.007 A 
ATOM     16  C   UNL     1     -14.493 -21.235  18.073  1.00  0.00     0.028 A 
ATOM     17  C   UNL     1     -16.117 -19.625  18.921  1.00  0.00     0.136 A 
ATOM     18  N   UNL     1     -16.867 -18.509  18.849  1.00  0.00    -0.240 NA
ATOM     19  C   UNL     1     -14.643 -21.957  19.178  1.00  0.00     0.089 A 
ATOM     20  C   UNL     1     -16.272 -20.427  20.144  1.00  0.00     0.276 A 
ATOM     21  N   UNL     1     -15.498 -21.588  20.189  1.00  0.00    -0.317 N 
ATOM     22  O   UNL     1     -16.980 -20.126  21.088  1.00  0.00    -0.267 OA
ATOM     23  C   UNL     1     -15.626 -22.432  21.376  1.00  0.00     0.153 C 
ENDBRANCH   8  12
ENDBRANCH   1   7
BRANCH   4  24
ATOM     24  O   UNL     1     -20.954 -10.292  14.799  1.00  0.00    -0.508 OA
ATOM     25  H   UNL     1     -20.997  -9.449  15.315  1.00  0.00     0.293 HD
ENDBRANCH   4  24
TORSDOF 3
ENDMDL
MODEL 5
REMARK VINA RESULT:    -8.684      1.552      2.012
REMARK INTER + INTRA:         -10.327
REMARK INTER:                  -9.962
REMARK INTRA:                  -0.364
REMARK UNBOUND:                -0.374
REMARK SMILES Cn1ccc2ccc(-c3cn(-c4ccc(O)cc4)nn3)nc2c1=O
REMARK SMILES IDX 12 1 13 2 14 3 15 4 17 5 18 6 11 7 9 8 10 9 20 10 19 11 8 12
REMARK SMILES IDX 6 13 7 14 5 15 4 16 22 17 21 18 3 19 23 20 2 21 24 22 1 23
REMARK SMILES IDX 16 24
REMARK H PARENT 16 25
ROOT
ATOM      1  C   UNL     1     -19.327 -13.915  16.662  1.00  0.00     0.067 A 
ATOM      2  C   UNL     1     -19.703 -13.953  15.329  1.00  0.00     0.032 A 
ATOM      3  C   UNL     1     -20.186 -12.809  14.716  1.00  0.00     0.048 A 
ATOM      4  C   UNL     1     -20.282 -11.625  15.435  1.00  0.00     0.115 A 
ATOM      5  C   UNL     1     -19.911 -11.592  16.771  1.00  0.00     0.048 A 
ATOM      6  C   UNL     1     -19.445 -12.737  17.384  1.00  0.00     0.032 A 
ENDROOT
BRANCH   1   7
ATOM      7  N   UNL     1     -18.783 -15.076  17.284  1.00  0.00    -0.220 N 
ATOM      8  C   UNL     1     -17.816 -16.948  17.770  1.00  0.00     0.131 A 
ATOM      9  C   UNL     1     -18.115 -16.110  16.729  1.00  0.00     0.147 A 
ATOM     10  N   UNL     1     -18.319 -16.393  18.914  1.00  0.00    -0.128 NA
ATOM     11  N   UNL     1     -18.896 -15.250  18.626  1.00  0.00    -0.062 NA
BRANCH   8  12
ATOM     12  C   UNL     1     -17.071 -18.213  17.773  1.00  0.00     0.093 A 
ATOM     13  C   UNL     1     -15.056 -19.475  17.705  1.00  0.00     0.013 A 
ATOM     14  C   UNL     1     -15.681 -18.241  17.744  1.00  0.00     0.031 A 
ATOM     15  C   UNL     1     -15.807 -20.654  17.698  1.00  0.00     0.007 A 
ATOM     16  C   UNL     1     -15.246 -21.974  17.646  1.00  0.00     0.028 A 
ATOM     17  C   UNL     1     -17.201 -20.520  17.738  1.00  0.00     0.136 A 
ATOM     18  N   UNL     1     -17.822 -19.325  17.778  1.00  0.00    -0.240 NA
ATOM     19  C   UNL     1     -16.044 -23.036  17.638  1.00  0.00     0.089 A 
ATOM     20  C   UNL     1     -18.078 -21.701  17.736  1.00  0.00     0.276 A 
ATOM     21  N   UNL     1     -17.414 -22.928  17.677  1.00  0.00    -0.317 N 
ATOM     22  O   UNL     1     -19.293 -21.666  17.812  1.00  0.00    -0.267 OA
ATOM     23  C   UNL     1     -18.239 -24.134  17.653  1.00  0.00     0.153 C 
ENDBRANCH   8  12
ENDBRANCH   1   7
BRANCH   4  24
ATOM     24  O   UNL     1     -20.742 -10.482  14.861  1.00  0.00    -0.508 OA
ATOM     25  H   UNL     1     -20.111  -9.753  14.637  1.00  0.00     0.293 HD
ENDBRANCH   4  24
TORSDOF 3
ENDMDL
MODEL 6
REMARK VINA RESULT:    -8.105      1.456      1.916
REMARK INTER + INTRA:          -9.664
REMARK INTER:                  -9.289
REMARK INTRA:                  -0.375
REMARK UNBOUND:                -0.374
REMARK SMILES Cn1ccc2ccc(-c3cn(-c4ccc(O)cc4)nn3)nc2c1=O
REMARK SMILES IDX 12 1 13 2 14 3 15 4 17 5 18 6 11 7 9 8 10 9 20 10 19 11 8 12
REMARK SMILES IDX 6 13 7 14 5 15 4 16 22 17 21 18 3 19 23 20 2 21 24 22 1 23
REMARK SMILES IDX 16 24
REMARK H PARENT 16 25
ROOT
ATOM      1  C   UNL     1     -19.094 -14.940  16.913  1.00  0.00     0.067 A 
ATOM      2  C   UNL     1     -18.953 -13.801  17.691  1.00  0.00     0.032 A 
ATOM      3  C   UNL     1     -19.400 -12.580  17.214  1.00  0.00     0.048 A 
ATOM      4  C   UNL     1     -20.000 -12.502  15.963  1.00  0.00     0.115 A 
ATOM      5  C   UNL     1     -20.134 -13.643  15.185  1.00  0.00     0.048 A 
ATOM      6  C   UNL     1     -19.673 -14.856  15.656  1.00  0.00     0.032 A 
ENDROOT
BRANCH   1   7
ATOM      7  N   UNL     1     -18.680 -16.206  17.419  1.00  0.00    -0.220 N 
ATOM      8  C   UNL     1     -17.793 -17.853  18.504  1.00  0.00     0.131 A 
ATOM      9  C   UNL     1     -17.837 -16.486  18.437  1.00  0.00     0.147 A 
ATOM     10  N   UNL     1     -18.604 -18.348  17.521  1.00  0.00    -0.128 NA
ATOM     11  N   UNL     1     -19.156 -17.352  16.869  1.00  0.00    -0.062 NA
BRANCH   8  12
ATOM     12  C   UNL     1     -17.068 -18.724  19.436  1.00  0.00     0.093 A 
ATOM     13  C   UNL     1     -15.452 -19.112  21.137  1.00  0.00     0.013 A 
ATOM     14  C   UNL     1     -16.121 -18.219  20.321  1.00  0.00     0.031 A 
ATOM     15  C   UNL     1     -15.725 -20.481  21.070  1.00  0.00     0.007 A 
ATOM     16  C   UNL     1     -15.072 -21.480  21.868  1.00  0.00     0.028 A 
ATOM     17  C   UNL     1     -16.702 -20.891  20.153  1.00  0.00     0.136 A 
ATOM     18  N   UNL     1     -17.362 -20.031  19.354  1.00  0.00    -0.240 NA
ATOM     19  C   UNL     1     -15.398 -22.761  21.728  1.00  0.00     0.089 A 
ATOM     20  C   UNL     1     -17.062 -22.309  20.009  1.00  0.00     0.276 A 
ATOM     21  N   UNL     1     -16.353 -23.184  20.835  1.00  0.00    -0.317 N 
ATOM     22  O   UNL     1     -17.928 -22.735  19.267  1.00  0.00    -0.267 OA
ATOM     23  C   UNL     1     -16.658 -24.609  20.719  1.00  0.00     0.153 C 
ENDBRANCH   8  12
ENDBRANCH   1   7
BRANCH   4  24
ATOM     24  O   UNL     1     -20.460 -11.322  15.470  1.00  0.00    -0.508 OA
ATOM     25  H   UNL     1     -20.975 -11.307  14.625  1.00  0.00     0.293 HD
ENDBRANCH   4  24
TORSDOF 3
ENDMDL
