MODEL 1
REMARK VINA RESULT:    -9.533      0.000      0.000
REMARK INTER + INTRA:         -11.312
REMARK INTER:                 -10.926
REMARK INTRA:                  -0.386
REMARK UNBOUND:                -0.386
REMARK SMILES Cn1ccc2ccc(-c3cn(-c4ccc(O)cc4)nn3)nc2c1=O
REMARK SMILES IDX 12 1 13 2 14 3 15 4 17 5 18 6 11 7 9 8 10 9 20 10 19 11 8 12
REMARK SMILES IDX 6 13 7 14 5 15 4 16 22 17 21 18 3 19 23 20 2 21 24 22 1 23
REMARK SMILES IDX 16 24
REMARK H PARENT 16 25
ROOT
ATOM      1  C   UNL     1     -19.733 -13.524  16.013  1.00  0.00     0.067 A 
ATOM      2  C   UNL     1     -19.885 -12.598  17.032  1.00  0.00     0.032 A 
ATOM      3  C   UNL     1     -20.259 -11.299  16.734  1.00  0.00     0.048 A 
ATOM      4  C   UNL     1     -20.492 -10.930  15.416  1.00  0.00     0.115 A 
ATOM      5  C   UNL     1     -20.333 -11.857  14.396  1.00  0.00     0.048 A 
ATOM      6  C   UNL     1     -19.945 -13.148  14.695  1.00  0.00     0.032 A 
ENDROOT
BRANCH   1   7
ATOM      7  N   UNL     1     -19.396 -14.874  16.318  1.00  0.00    -0.220 N 
ATOM      8  C   UNL     1     -18.685 -16.724  17.185  1.00  0.00     0.131 A 
ATOM      9  C   UNL     1     -18.731 -15.370  17.384  1.00  0.00     0.147 A 
ATOM     10  N   UNL     1     -19.317 -16.996  16.004  1.00  0.00    -0.128 NA
ATOM     11  N   UNL     1     -19.763 -15.878  15.480  1.00  0.00    -0.062 NA
BRANCH   8  12
ATOM     12  C   UNL     1     -18.116 -17.778  18.032  1.00  0.00     0.093 A 
ATOM     13  C   UNL     1     -16.927 -18.533  19.949  1.00  0.00     0.013 A 
ATOM     14  C   UNL     1     -17.474 -17.485  19.230  1.00  0.00     0.031 A 
ATOM     15  C   UNL     1     -17.023 -19.846  19.480  1.00  0.00     0.007 A 
ATOM     16  C   UNL     1     -16.477 -20.991  20.151  1.00  0.00     0.028 A 
ATOM     17  C   UNL     1     -17.698 -20.040  18.267  1.00  0.00     0.136 A 
ATOM     18  N   UNL     1     -18.236 -19.028  17.558  1.00  0.00    -0.240 NA
ATOM     19  C   UNL     1     -16.616 -22.202  19.621  1.00  0.00     0.089 A 
ATOM     20  C   UNL     1     -17.854 -21.383  17.690  1.00  0.00     0.276 A 
ATOM     21  N   UNL     1     -17.274 -22.414  18.433  1.00  0.00    -0.317 N 
ATOM     22  O   UNL     1     -18.462 -21.635  16.666  1.00  0.00    -0.267 OA
ATOM     23  C   UNL     1     -17.383 -23.769  17.896  1.00  0.00     0.153 C 
ENDBRANCH   8  12
ENDBRANCH   1   7
BRANCH   4  24
ATOM     24  O   UNL     1     -20.871  -9.666  15.089  1.00  0.00    -0.508 OA
ATOM     25  H   UNL     1     -21.833  -9.436  15.035  1.00  0.00     0.293 HD
ENDBRANCH   4  24
TORSDOF 3
ENDMDL
MODEL 2
REMARK VINA RESULT:    -9.153      0.148      0.988
REMARK INTER + INTRA:         -10.876
REMARK INTER:                 -10.489
REMARK INTRA:                  -0.386
REMARK UNBOUND:                -0.386
REMARK SMILES Cn1ccc2ccc(-c3cn(-c4ccc(O)cc4)nn3)nc2c1=O
REMARK SMILES IDX 12 1 13 2 14 3 15 4 17 5 18 6 11 7 9 8 10 9 20 10 19 11 8 12
REMARK SMILES IDX 6 13 7 14 5 15 4 16 22 17 21 18 3 19 23 20 2 21 24 22 1 23
REMARK SMILES IDX 16 24
REMARK H PARENT 16 25
ROOT
ATOM      1  C   UNL     1     -19.759 -13.610  16.045  1.00  0.00     0.067 A 
ATOM      2  C   UNL     1     -20.108 -13.250  14.753  1.00  0.00     0.032 A 
ATOM      3  C   UNL     1     -20.417 -11.931  14.464  1.00  0.00     0.048 A 
ATOM      4  C   UNL     1     -20.366 -10.971  15.467  1.00  0.00     0.115 A 
ATOM      5  C   UNL     1     -20.024 -11.336  16.761  1.00  0.00     0.048 A 
ATOM      6  C   UNL     1     -19.731 -12.654  17.050  1.00  0.00     0.032 A 
ENDROOT
BRANCH   1   7
ATOM      7  N   UNL     1     -19.393 -14.956  16.338  1.00  0.00    -0.220 N 
ATOM      8  C   UNL     1     -18.664 -16.800  17.199  1.00  0.00     0.131 A 
ATOM      9  C   UNL     1     -18.762 -15.453  17.424  1.00  0.00     0.147 A 
ATOM     10  N   UNL     1     -19.232 -17.066  15.985  1.00  0.00    -0.128 NA
ATOM     11  N   UNL     1     -19.689 -15.951  15.464  1.00  0.00    -0.062 NA
BRANCH   8  12
ATOM     12  C   UNL     1     -18.101 -17.855  18.050  1.00  0.00     0.093 A 
ATOM     13  C   UNL     1     -16.873 -18.608  19.943  1.00  0.00     0.013 A 
ATOM     14  C   UNL     1     -17.409 -17.558  19.220  1.00  0.00     0.031 A 
ATOM     15  C   UNL     1     -17.027 -19.927  19.506  1.00  0.00     0.007 A 
ATOM     16  C   UNL     1     -16.495 -21.075  20.184  1.00  0.00     0.028 A 
ATOM     17  C   UNL     1     -17.748 -20.123  18.320  1.00  0.00     0.136 A 
ATOM     18  N   UNL     1     -18.276 -19.110  17.608  1.00  0.00    -0.240 NA
ATOM     19  C   UNL     1     -16.690 -22.291  19.685  1.00  0.00     0.089 A 
ATOM     20  C   UNL     1     -17.965 -21.473  17.778  1.00  0.00     0.276 A 
ATOM     21  N   UNL     1     -17.394 -22.506  18.524  1.00  0.00    -0.317 N 
ATOM     22  O   UNL     1     -18.615 -21.726  16.781  1.00  0.00    -0.267 OA
ATOM     23  C   UNL     1     -17.564 -23.868  18.021  1.00  0.00     0.153 C 
ENDBRANCH   8  12
ENDBRANCH   1   7
BRANCH   4  24
ATOM     24  O   UNL     1     -20.653  -9.667  15.215  1.00  0.00    -0.508 OA
ATOM     25  H   UNL     1     -20.532  -9.301  14.303  1.00  0.00     0.293 HD
ENDBRANCH   4  24
TORSDOF 3
ENDMDL
MODEL 3
REMARK VINA RESULT:    -8.826      1.968      2.240
REMARK INTER + INTRA:         -10.502
REMARK INTER:                 -10.139
REMARK INTRA:                  -0.363
REMARK UNBOUND:                -0.386
REMARK SMILES Cn1ccc2ccc(-c3cn(-c4ccc(O)cc4)nn3)nc2c1=O
REMARK SMILES IDX 12 1 13 2 14 3 15 4 17 5 18 6 11 7 9 8 10 9 20 10 19 11 8 12
REMARK SMILES IDX 6 13 7 14 5 15 4 16 22 17 21 18 3 19 23 20 2 21 24 22 1 23
REMARK SMILES IDX 16 24
REMARK H PARENT 16 25
ROOT
ATOM      1  C   UNL     1     -19.726 -13.428  15.990  1.00  0.00     0.067 A 
ATOM      2  C   UNL     1     -19.924 -12.506  17.006  1.00  0.00     0.032 A 
ATOM      3  C   UNL     1     -20.345 -11.223  16.700  1.00  0.00     0.048 A 
ATOM      4  C   UNL     1     -20.578 -10.866  15.378  1.00  0.00     0.115 A 
ATOM      5  C   UNL     1     -20.371 -11.789  14.363  1.00  0.00     0.048 A 
ATOM      6  C   UNL     1     -19.937 -13.063  14.669  1.00  0.00     0.032 A 
ENDROOT
BRANCH   1   7
ATOM      7  N   UNL     1     -19.340 -14.763  16.302  1.00  0.00    -0.220 N 
ATOM      8  C   UNL     1     -18.516 -16.574  17.150  1.00  0.00     0.131 A 
ATOM      9  C   UNL     1     -18.559 -15.215  17.308  1.00  0.00     0.147 A 
ATOM     10  N   UNL     1     -19.267 -16.894  16.053  1.00  0.00    -0.128 NA
ATOM     11  N   UNL     1     -19.780 -15.799  15.543  1.00  0.00    -0.062 NA
BRANCH   8  12
ATOM     12  C   UNL     1     -17.847 -17.594  17.967  1.00  0.00     0.093 A 
ATOM     13  C   UNL     1     -17.758 -19.099  19.806  1.00  0.00     0.013 A 
ATOM     14  C   UNL     1     -18.473 -18.177  19.063  1.00  0.00     0.031 A 
ATOM     15  C   UNL     1     -16.445 -19.429  19.459  1.00  0.00     0.007 A 
ATOM     16  C   UNL     1     -15.625 -20.363  20.178  1.00  0.00     0.028 A 
ATOM     17  C   UNL     1     -15.906 -18.794  18.333  1.00  0.00     0.136 A 
ATOM     18  N   UNL     1     -16.592 -17.896  17.600  1.00  0.00    -0.240 NA
ATOM     19  C   UNL     1     -14.384 -20.608  19.772  1.00  0.00     0.089 A 
ATOM     20  C   UNL     1     -14.533 -19.075  17.885  1.00  0.00     0.276 A 
ATOM     21  N   UNL     1     -13.835 -19.995  18.670  1.00  0.00    -0.317 N 
ATOM     22  O   UNL     1     -14.012 -18.596  16.895  1.00  0.00    -0.267 OA
ATOM     23  C   UNL     1     -12.459 -20.298  18.281  1.00  0.00     0.153 C 
ENDBRANCH   8  12
ENDBRANCH   1   7
BRANCH   4  24
ATOM     24  O   UNL     1     -21.001  -9.618  15.044  1.00  0.00    -0.508 OA
ATOM     25  H   UNL     1     -20.366  -8.969  14.650  1.00  0.00     0.293 HD
ENDBRANCH   4  24
TORSDOF 3
ENDMDL
MODEL 4
REMARK VINA RESULT:    -7.585      1.624      1.817
REMARK INTER + INTRA:          -9.080
REMARK INTER:                  -8.700
REMARK INTRA:                  -0.380
REMARK UNBOUND:                -0.386
REMARK SMILES Cn1ccc2ccc(-c3cn(-c4ccc(O)cc4)nn3)nc2c1=O
REMARK SMILES IDX 12 1 13 2 14 3 15 4 17 5 18 6 11 7 9 8 10 9 20 10 19 11 8 12
REMARK SMILES IDX 6 13 7 14 5 15 4 16 22 17 21 18 3 19 23 20 2 21 24 22 1 23
REMARK SMILES IDX 16 24
REMARK H PARENT 16 25
ROOT
ATOM      1  C   UNL     1     -19.488 -13.604  16.550  1.00  0.00     0.067 A 
ATOM      2  C   UNL     1     -19.797 -12.397  17.156  1.00  0.00     0.032 A 
ATOM      3  C   UNL     1     -20.234 -11.331  16.387  1.00  0.00     0.048 A 
ATOM      4  C   UNL     1     -20.373 -11.478  15.013  1.00  0.00     0.115 A 
ATOM      5  C   UNL     1     -20.056 -12.686  14.408  1.00  0.00     0.048 A 
ATOM      6  C   UNL     1     -19.605 -13.742  15.175  1.00  0.00     0.032 A 
ENDROOT
BRANCH   1   7
ATOM      7  N   UNL     1     -19.084 -14.718  17.341  1.00  0.00    -0.220 N 
ATOM      8  C   UNL     1     -18.416 -16.628  18.104  1.00  0.00     0.131 A 
ATOM      9  C   UNL     1     -18.698 -15.951  16.947  1.00  0.00     0.147 A 
ATOM     10  N   UNL     1     -18.647 -15.783  19.152  1.00  0.00    -0.128 NA
ATOM     11  N   UNL     1     -19.040 -14.617  18.694  1.00  0.00    -0.062 NA
BRANCH   8  12
ATOM     12  C   UNL     1     -17.920 -17.996  18.293  1.00  0.00     0.093 A 
ATOM     13  C   UNL     1     -17.276 -19.837  19.655  1.00  0.00     0.013 A 
ATOM     14  C   UNL     1     -17.791 -18.557  19.559  1.00  0.00     0.031 A 
ATOM     15  C   UNL     1     -16.900 -20.541  18.507  1.00  0.00     0.007 A 
ATOM     16  C   UNL     1     -16.347 -21.866  18.512  1.00  0.00     0.028 A 
ATOM     17  C   UNL     1     -17.077 -19.894  17.277  1.00  0.00     0.136 A 
ATOM     18  N   UNL     1     -17.579 -18.648  17.171  1.00  0.00    -0.240 NA
ATOM     19  C   UNL     1     -16.014 -22.451  17.366  1.00  0.00     0.089 A 
ATOM     20  C   UNL     1     -16.713 -20.551  16.013  1.00  0.00     0.276 A 
ATOM     21  N   UNL     1     -16.179 -21.834  16.148  1.00  0.00    -0.317 N 
ATOM     22  O   UNL     1     -16.877 -20.071  14.907  1.00  0.00    -0.267 OA
ATOM     23  C   UNL     1     -15.783 -22.527  14.924  1.00  0.00     0.153 C 
ENDBRANCH   8  12
ENDBRANCH   1   7
BRANCH   4  24
ATOM     24  O   UNL     1     -20.810 -10.456  14.231  1.00  0.00    -0.508 OA
ATOM     25  H   UNL     1     -21.066 -10.628  13.290  1.00  0.00     0.293 HD
ENDBRANCH   4  24
TORSDOF 3
ENDMDL
MODEL 5
REMARK VINA RESULT:    -7.316      2.300      3.072
REMARK INTER + INTRA:          -8.771
REMARK INTER:                  -8.397
REMARK INTRA:                  -0.374
REMARK UNBOUND:                -0.386
REMARK SMILES Cn1ccc2ccc(-c3cn(-c4ccc(O)cc4)nn3)nc2c1=O
REMARK SMILES IDX 12 1 13 2 14 3 15 4 17 5 18 6 11 7 9 8 10 9 20 10 19 11 8 12
REMARK SMILES IDX 6 13 7 14 5 15 4 16 22 17 21 18 3 19 23 20 2 21 24 22 1 23
REMARK SMILES IDX 16 24
REMARK H PARENT 16 25
ROOT
ATOM      1  C   UNL     1     -19.518 -13.673  16.607  1.00  0.00     0.067 A 
ATOM      2  C   UNL     1     -19.587 -13.922  15.246  1.00  0.00     0.032 A 
ATOM      3  C   UNL     1     -19.956 -12.908  14.377  1.00  0.00     0.048 A 
ATOM      4  C   UNL     1     -20.245 -11.643  14.871  1.00  0.00     0.115 A 
ATOM      5  C   UNL     1     -20.181 -11.398  16.235  1.00  0.00     0.048 A 
ATOM      6  C   UNL     1     -19.828 -12.414  17.100  1.00  0.00     0.032 A 
ENDROOT
BRANCH   1   7
ATOM      7  N   UNL     1     -19.091 -14.697  17.500  1.00  0.00    -0.220 N 
ATOM      8  C   UNL     1     -18.366 -16.505  18.440  1.00  0.00     0.131 A 
ATOM      9  C   UNL     1     -18.642 -15.941  17.223  1.00  0.00     0.147 A 
ATOM     10  N   UNL     1     -18.665 -15.586  19.407  1.00  0.00    -0.128 NA
ATOM     11  N   UNL     1     -19.092 -14.482  18.841  1.00  0.00    -0.062 NA
BRANCH   8  12
ATOM     12  C   UNL     1     -17.820 -17.830  18.758  1.00  0.00     0.093 A 
ATOM     13  C   UNL     1     -17.851 -20.206  18.651  1.00  0.00     0.013 A 
ATOM     14  C   UNL     1     -18.401 -18.995  18.270  1.00  0.00     0.031 A 
ATOM     15  C   UNL     1     -16.742 -20.248  19.501  1.00  0.00     0.007 A 
ATOM     16  C   UNL     1     -16.114 -21.456  19.957  1.00  0.00     0.028 A 
ATOM     17  C   UNL     1     -16.223 -19.020  19.932  1.00  0.00     0.136 A 
ATOM     18  N   UNL     1     -16.749 -17.835  19.567  1.00  0.00    -0.240 NA
ATOM     19  C   UNL     1     -15.065 -21.393  20.771  1.00  0.00     0.089 A 
ATOM     20  C   UNL     1     -15.058 -18.958  20.826  1.00  0.00     0.276 A 
ATOM     21  N   UNL     1     -14.540 -20.199  21.205  1.00  0.00    -0.317 N 
ATOM     22  O   UNL     1     -14.526 -17.932  21.207  1.00  0.00    -0.267 OA
ATOM     23  C   UNL     1     -13.392 -20.197  22.110  1.00  0.00     0.153 C 
ENDBRANCH   8  12
ENDBRANCH   1   7
BRANCH   4  24
ATOM     24  O   UNL     1     -20.600 -10.623  14.045  1.00  0.00    -0.508 OA
ATOM     25  H   UNL     1     -21.513 -10.243  14.093  1.00  0.00     0.293 HD
ENDBRANCH   4  24
TORSDOF 3
ENDMDL
MODEL 6
REMARK VINA RESULT:    -6.603      2.883      3.853
REMARK INTER + INTRA:          -7.953
REMARK INTER:                  -7.586
REMARK INTRA:                  -0.367
REMARK UNBOUND:                -0.386
REMARK SMILES Cn1ccc2ccc(-c3cn(-c4ccc(O)cc4)nn3)nc2c1=O
REMARK SMILES IDX 12 1 13 2 14 3 15 4 17 5 18 6 11 7 9 8 10 9 20 10 19 11 8 12
REMARK SMILES IDX 6 13 7 14 5 15 4 16 22 17 21 18 3 19 23 20 2 21 24 22 1 23
REMARK SMILES IDX 16 24
REMARK H PARENT 16 25
ROOT
ATOM      1  C   UNL     1     -19.074 -15.090  16.795  1.00  0.00     0.067 A 
ATOM      2  C   UNL     1     -19.814 -15.032  15.624  1.00  0.00     0.032 A 
ATOM      3  C   UNL     1     -20.338 -13.823  15.198  1.00  0.00     0.048 A 
ATOM      4  C   UNL     1     -20.112 -12.670  15.938  1.00  0.00     0.115 A 
ATOM      5  C   UNL     1     -19.377 -12.732  17.113  1.00  0.00     0.048 A 
ATOM      6  C   UNL     1     -18.868 -13.941  17.544  1.00  0.00     0.032 A 
ENDROOT
BRANCH   1   7
ATOM      7  N   UNL     1     -18.492 -16.321  17.212  1.00  0.00    -0.220 N 
ATOM      8  C   UNL     1     -17.542 -17.951  18.271  1.00  0.00     0.131 A 
ATOM      9  C   UNL     1     -17.944 -16.648  18.403  1.00  0.00     0.147 A 
ATOM     10  N   UNL     1     -17.855 -18.360  17.005  1.00  0.00    -0.128 NA
ATOM     11  N   UNL     1     -18.445 -17.379  16.362  1.00  0.00    -0.062 NA
BRANCH   8  12
ATOM     12  C   UNL     1     -16.912 -18.843  19.251  1.00  0.00     0.093 A 
ATOM     13  C   UNL     1     -16.824 -20.847  20.528  1.00  0.00     0.013 A 
ATOM     14  C   UNL     1     -17.454 -20.085  19.561  1.00  0.00     0.031 A 
ATOM     15  C   UNL     1     -15.675 -20.376  21.170  1.00  0.00     0.007 A 
ATOM     16  C   UNL     1     -14.963 -21.091  22.190  1.00  0.00     0.028 A 
ATOM     17  C   UNL     1     -15.201 -19.116  20.781  1.00  0.00     0.136 A 
ATOM     18  N   UNL     1     -15.805 -18.365  19.840  1.00  0.00    -0.240 NA
ATOM     19  C   UNL     1     -13.880 -20.556  22.746  1.00  0.00     0.089 A 
ATOM     20  C   UNL     1     -13.999 -18.533  21.395  1.00  0.00     0.276 A 
ATOM     21  N   UNL     1     -13.399 -19.321  22.380  1.00  0.00    -0.317 N 
ATOM     22  O   UNL     1     -13.504 -17.466  21.081  1.00  0.00    -0.267 OA
ATOM     23  C   UNL     1     -12.210 -18.782  23.037  1.00  0.00     0.153 C 
ENDBRANCH   8  12
ENDBRANCH   1   7
BRANCH   4  24
ATOM     24  O   UNL     1     -20.602 -11.466  15.543  1.00  0.00    -0.508 OA
ATOM     25  H   UNL     1     -21.568 -11.365  15.348  1.00  0.00     0.293 HD
ENDBRANCH   4  24
TORSDOF 3
ENDMDL
