MODEL 1
REMARK VINA RESULT:    -5.367      0.000      0.000
REMARK INTER + INTRA:          -8.209
REMARK INTER:                  -7.563
REMARK INTRA:                  -0.646
REMARK UNBOUND:                -0.646
REMARK SMILES CO[C@H]1OC(OC(=O)c2cc(O)c(O)c(O)c2)[C@H](O)[C@@H](O)[C@@H]1O
REMARK SMILES IDX 7 1 8 2 6 3 5 4 3 5 22 6 4 7 20 8 18 9 2 10 1 11 23 12 21 14
REMARK SMILES IDX 19 16 9 18 17 19 10 20 15 21 11 22 13 23 16 24 12 26 14 28
REMARK H PARENT 23 13 21 15 19 17 16 25 12 27 14 29
ROOT
ATOM      1  C   UNL     1      28.650  33.996 -49.276  1.00  0.00     0.340 C 
ATOM      2  O   UNL     1      28.818  34.289 -50.449  1.00  0.00    -0.246 OA
ENDROOT
BRANCH   1   3
ATOM      3  O   UNL     1      29.157  32.922 -48.628  1.00  0.00    -0.429 OA
BRANCH   3   4
ATOM      4  C   UNL     1      30.341  32.348 -49.204  1.00  0.00     0.345 C 
ATOM      5  C   UNL     1      31.721  33.258 -47.486  1.00  0.00     0.285 C 
ATOM      6  C   UNL     1      32.000  31.869 -46.884  1.00  0.00     0.202 C 
ATOM      7  O   UNL     1      31.480  33.164 -48.886  1.00  0.00    -0.308 OA
ATOM      8  C   UNL     1      30.835  30.933 -47.184  1.00  0.00     0.183 C 
ATOM      9  C   UNL     1      30.550  30.909 -48.685  1.00  0.00     0.215 C 
BRANCH   5  10
ATOM     10  O   UNL     1      32.889  34.052 -47.224  1.00  0.00    -0.353 OA
ATOM     11  C   UNL     1      32.983  35.160 -48.111  1.00  0.00     0.198 C 
ENDBRANCH   5  10
BRANCH   6  12
ATOM     12  O   UNL     1      32.187  31.937 -45.461  1.00  0.00    -0.385 OA
ATOM     13  H   UNL     1      31.393  32.399 -45.121  1.00  0.00     0.211 HD
ENDBRANCH   6  12
BRANCH   8  14
ATOM     14  O   UNL     1      31.145  29.598 -46.744  1.00  0.00    -0.387 OA
ATOM     15  H   UNL     1      32.113  29.510 -46.868  1.00  0.00     0.211 HD
ENDBRANCH   8  14
BRANCH   9  16
ATOM     16  O   UNL     1      29.418  30.067 -48.930  1.00  0.00    -0.384 OA
ATOM     17  H   UNL     1      29.285  30.092 -49.899  1.00  0.00     0.211 HD
ENDBRANCH   9  16
ENDBRANCH   3   4
ENDBRANCH   1   3
BRANCH   1  18
ATOM     18  C   UNL     1      27.831  34.822 -48.349  1.00  0.00     0.067 A 
ATOM     19  C   UNL     1      27.047  35.849 -48.907  1.00  0.00     0.066 A 
ATOM     20  C   UNL     1      27.827  34.609 -46.962  1.00  0.00     0.066 A 
ATOM     21  C   UNL     1      26.268  36.647 -48.076  1.00  0.00     0.162 A 
ATOM     22  C   UNL     1      27.042  35.420 -46.152  1.00  0.00     0.162 A 
ATOM     23  C   UNL     1      26.267  36.432 -46.703  1.00  0.00     0.200 A 
BRANCH  21  24
ATOM     24  O   UNL     1      25.485  37.656 -48.563  1.00  0.00    -0.504 OA
ATOM     25  H   UNL     1      25.997  38.485 -48.531  1.00  0.00     0.293 HD
ENDBRANCH  21  24
BRANCH  22  26
ATOM     26  O   UNL     1      27.040  35.214 -44.803  1.00  0.00    -0.504 OA
ATOM     27  H   UNL     1      26.348  34.536 -44.656  1.00  0.00     0.293 HD
ENDBRANCH  22  26
BRANCH  23  28
ATOM     28  O   UNL     1      25.505  37.211 -45.876  1.00  0.00    -0.502 OA
ATOM     29  H   UNL     1      24.582  37.015 -46.141  1.00  0.00     0.293 HD
ENDBRANCH  23  28
ENDBRANCH   1  18
TORSDOF 10
ENDMDL
MODEL 2
REMARK VINA RESULT:    -5.326      8.005     10.497
REMARK INTER + INTRA:          -8.152
REMARK INTER:                  -7.347
REMARK INTRA:                  -0.805
REMARK UNBOUND:                -0.646
REMARK SMILES CO[C@H]1OC(OC(=O)c2cc(O)c(O)c(O)c2)[C@H](O)[C@@H](O)[C@@H]1O
REMARK SMILES IDX 7 1 8 2 6 3 5 4 3 5 22 6 4 7 20 8 18 9 2 10 1 11 23 12 21 14
REMARK SMILES IDX 19 16 9 18 17 19 10 20 15 21 11 22 13 23 16 24 12 26 14 28
REMARK H PARENT 23 13 21 15 19 17 16 25 12 27 14 29
ROOT
ATOM      1  C   UNL     1      30.376  43.503 -50.828  1.00  0.00     0.340 C 
ATOM      2  O   UNL     1      31.104  44.393 -50.417  1.00  0.00    -0.246 OA
ENDROOT
BRANCH   1   3
ATOM      3  O   UNL     1      30.313  43.028 -52.094  1.00  0.00    -0.429 OA
BRANCH   3   4
ATOM      4  C   UNL     1      31.512  42.409 -52.588  1.00  0.00     0.345 C 
ATOM      5  C   UNL     1      30.303  41.185 -54.238  1.00  0.00     0.285 C 
ATOM      6  C   UNL     1      30.907  42.011 -55.387  1.00  0.00     0.202 C 
ATOM      7  O   UNL     1      31.201  41.117 -53.136  1.00  0.00    -0.308 OA
ATOM      8  C   UNL     1      31.273  43.403 -54.886  1.00  0.00     0.183 C 
ATOM      9  C   UNL     1      32.177  43.301 -53.658  1.00  0.00     0.215 C 
BRANCH   5  10
ATOM     10  O   UNL     1      30.054  39.875 -54.771  1.00  0.00    -0.353 OA
ATOM     11  C   UNL     1      31.224  39.065 -54.749  1.00  0.00     0.198 C 
ENDBRANCH   5  10
BRANCH   6  12
ATOM     12  O   UNL     1      29.989  42.139 -56.485  1.00  0.00    -0.385 OA
ATOM     13  H   UNL     1      29.553  41.266 -56.556  1.00  0.00     0.211 HD
ENDBRANCH   6  12
BRANCH   8  14
ATOM     14  O   UNL     1      31.962  44.136 -55.915  1.00  0.00    -0.387 OA
ATOM     15  H   UNL     1      32.052  43.504 -56.658  1.00  0.00     0.211 HD
ENDBRANCH   8  14
BRANCH   9  16
ATOM     16  O   UNL     1      32.459  44.620 -53.176  1.00  0.00    -0.384 OA
ATOM     17  H   UNL     1      32.945  45.059 -53.903  1.00  0.00     0.211 HD
ENDBRANCH   9  16
ENDBRANCH   3   4
ENDBRANCH   1   3
BRANCH   1  18
ATOM     18  C   UNL     1      29.417  42.778 -49.953  1.00  0.00     0.067 A 
ATOM     19  C   UNL     1      29.730  41.453 -49.597  1.00  0.00     0.066 A 
ATOM     20  C   UNL     1      28.231  43.369 -49.490  1.00  0.00     0.066 A 
ATOM     21  C   UNL     1      28.860  40.737 -48.782  1.00  0.00     0.162 A 
ATOM     22  C   UNL     1      27.377  42.634 -48.679  1.00  0.00     0.162 A 
ATOM     23  C   UNL     1      27.687  41.327 -48.325  1.00  0.00     0.200 A 
BRANCH  21  24
ATOM     24  O   UNL     1      29.115  39.449 -48.401  1.00  0.00    -0.504 OA
ATOM     25  H   UNL     1      29.968  39.430 -47.931  1.00  0.00     0.293 HD
ENDBRANCH  21  24
BRANCH  22  26
ATOM     26  O   UNL     1      26.223  43.207 -48.230  1.00  0.00    -0.504 OA
ATOM     27  H   UNL     1      26.374  44.171 -48.318  1.00  0.00     0.293 HD
ENDBRANCH  22  26
BRANCH  23  28
ATOM     28  O   UNL     1      26.823  40.632 -47.524  1.00  0.00    -0.502 OA
ATOM     29  H   UNL     1      26.224  40.176 -48.152  1.00  0.00     0.293 HD
ENDBRANCH  23  28
ENDBRANCH   1  18
TORSDOF 10
ENDMDL
MODEL 3
REMARK VINA RESULT:    -5.322      2.271      2.498
REMARK INTER + INTRA:          -8.146
REMARK INTER:                  -7.355
REMARK INTRA:                  -0.792
REMARK UNBOUND:                -0.646
REMARK SMILES CO[C@H]1OC(OC(=O)c2cc(O)c(O)c(O)c2)[C@H](O)[C@@H](O)[C@@H]1O
REMARK SMILES IDX 7 1 8 2 6 3 5 4 3 5 22 6 4 7 20 8 18 9 2 10 1 11 23 12 21 14
REMARK SMILES IDX 19 16 9 18 17 19 10 20 15 21 11 22 13 23 16 24 12 26 14 28
REMARK H PARENT 23 13 21 15 19 17 16 25 12 27 14 29
ROOT
ATOM      1  C   UNL     1      29.150  34.192 -49.786  1.00  0.00     0.340 C 
ATOM      2  O   UNL     1      28.627  34.068 -50.881  1.00  0.00    -0.246 OA
ENDROOT
BRANCH   1   3
ATOM      3  O   UNL     1      29.531  33.197 -48.952  1.00  0.00    -0.429 OA
BRANCH   3   4
ATOM      4  C   UNL     1      30.650  32.410 -49.390  1.00  0.00     0.345 C 
ATOM      5  C   UNL     1      32.008  33.178 -47.588  1.00  0.00     0.285 C 
ATOM      6  C   UNL     1      32.000  31.798 -46.908  1.00  0.00     0.202 C 
ATOM      7  O   UNL     1      31.876  33.049 -49.000  1.00  0.00    -0.308 OA
ATOM      8  C   UNL     1      30.728  31.046 -47.279  1.00  0.00     0.183 C 
ATOM      9  C   UNL     1      30.573  30.986 -48.798  1.00  0.00     0.215 C 
BRANCH   5  10
ATOM     10  O   UNL     1      33.263  33.788 -47.249  1.00  0.00    -0.353 OA
ATOM     11  C   UNL     1      33.478  34.992 -47.975  1.00  0.00     0.198 C 
ENDBRANCH   5  10
BRANCH   6  12
ATOM     12  O   UNL     1      32.073  31.913 -45.478  1.00  0.00    -0.385 OA
ATOM     13  H   UNL     1      33.011  31.743 -45.255  1.00  0.00     0.211 HD
ENDBRANCH   6  12
BRANCH   8  14
ATOM     14  O   UNL     1      30.775  29.705 -46.759  1.00  0.00    -0.387 OA
ATOM     15  H   UNL     1      30.044  29.234 -47.209  1.00  0.00     0.211 HD
ENDBRANCH   8  14
BRANCH   9  16
ATOM     16  O   UNL     1      29.343  30.325 -49.115  1.00  0.00    -0.384 OA
ATOM     17  H   UNL     1      29.067  30.697 -49.976  1.00  0.00     0.211 HD
ENDBRANCH   9  16
ENDBRANCH   3   4
ENDBRANCH   1   3
BRANCH   1  18
ATOM     18  C   UNL     1      29.465  35.517 -49.189  1.00  0.00     0.067 A 
ATOM     19  C   UNL     1      29.888  36.541 -50.056  1.00  0.00     0.066 A 
ATOM     20  C   UNL     1      29.357  35.763 -47.811  1.00  0.00     0.066 A 
ATOM     21  C   UNL     1      30.195  37.796 -49.540  1.00  0.00     0.162 A 
ATOM     22  C   UNL     1      29.670  37.023 -47.319  1.00  0.00     0.162 A 
ATOM     23  C   UNL     1      30.086  38.034 -48.175  1.00  0.00     0.200 A 
BRANCH  21  24
ATOM     24  O   UNL     1      30.608  38.828 -50.335  1.00  0.00    -0.504 OA
ATOM     25  H   UNL     1      30.131  38.773 -51.184  1.00  0.00     0.293 HD
ENDBRANCH  21  24
BRANCH  22  26
ATOM     26  O   UNL     1      29.567  37.261 -45.979  1.00  0.00    -0.504 OA
ATOM     27  H   UNL     1      29.076  38.107 -45.914  1.00  0.00     0.293 HD
ENDBRANCH  22  26
BRANCH  23  28
ATOM     28  O   UNL     1      30.386  39.264 -47.656  1.00  0.00    -0.502 OA
ATOM     29  H   UNL     1      30.917  39.066 -46.856  1.00  0.00     0.293 HD
ENDBRANCH  23  28
ENDBRANCH   1  18
TORSDOF 10
ENDMDL
MODEL 4
REMARK VINA RESULT:    -5.300      3.748      4.318
REMARK INTER + INTRA:          -8.116
REMARK INTER:                  -7.266
REMARK INTRA:                  -0.850
REMARK UNBOUND:                -0.646
REMARK SMILES CO[C@H]1OC(OC(=O)c2cc(O)c(O)c(O)c2)[C@H](O)[C@@H](O)[C@@H]1O
REMARK SMILES IDX 7 1 8 2 6 3 5 4 3 5 22 6 4 7 20 8 18 9 2 10 1 11 23 12 21 14
REMARK SMILES IDX 19 16 9 18 17 19 10 20 15 21 11 22 13 23 16 24 12 26 14 28
REMARK H PARENT 23 13 21 15 19 17 16 25 12 27 14 29
ROOT
ATOM      1  C   UNL     1      29.188  36.587 -49.735  1.00  0.00     0.340 C 
ATOM      2  O   UNL     1      28.173  36.248 -50.322  1.00  0.00    -0.246 OA
ENDROOT
BRANCH   1   3
ATOM      3  O   UNL     1      30.020  35.788 -49.027  1.00  0.00    -0.429 OA
BRANCH   3   4
ATOM      4  C   UNL     1      31.105  35.207 -49.767  1.00  0.00     0.345 C 
ATOM      5  C   UNL     1      32.335  34.753 -47.776  1.00  0.00     0.285 C 
ATOM      6  C   UNL     1      32.139  33.234 -47.924  1.00  0.00     0.202 C 
ATOM      7  O   UNL     1      32.336  35.390 -49.049  1.00  0.00    -0.308 OA
ATOM      8  C   UNL     1      30.850  32.950 -48.686  1.00  0.00     0.183 C 
ATOM      9  C   UNL     1      30.846  33.705 -50.015  1.00  0.00     0.215 C 
BRANCH   5  10
ATOM     10  O   UNL     1      33.598  34.935 -47.116  1.00  0.00    -0.353 OA
ATOM     11  C   UNL     1      34.687  34.560 -47.950  1.00  0.00     0.198 C 
ENDBRANCH   5  10
BRANCH   6  12
ATOM     12  O   UNL     1      32.077  32.583 -46.645  1.00  0.00    -0.385 OA
ATOM     13  H   UNL     1      32.791  31.913 -46.664  1.00  0.00     0.211 HD
ENDBRANCH   6  12
BRANCH   8  14
ATOM     14  O   UNL     1      30.729  31.541 -48.947  1.00  0.00    -0.387 OA
ATOM     15  H   UNL     1      30.566  31.135 -48.070  1.00  0.00     0.211 HD
ENDBRANCH   8  14
BRANCH   9  16
ATOM     16  O   UNL     1      29.602  33.465 -50.682  1.00  0.00    -0.384 OA
ATOM     17  H   UNL     1      29.161  32.766 -50.157  1.00  0.00     0.211 HD
ENDBRANCH   9  16
ENDBRANCH   3   4
ENDBRANCH   1   3
BRANCH   1  18
ATOM     18  C   UNL     1      29.679  37.990 -49.720  1.00  0.00     0.067 A 
ATOM     19  C   UNL     1      29.732  38.678 -50.946  1.00  0.00     0.066 A 
ATOM     20  C   UNL     1      30.087  38.629 -48.537  1.00  0.00     0.066 A 
ATOM     21  C   UNL     1      30.188  39.992 -50.978  1.00  0.00     0.162 A 
ATOM     22  C   UNL     1      30.539  39.940 -48.595  1.00  0.00     0.162 A 
ATOM     23  C   UNL     1      30.590  40.619 -49.805  1.00  0.00     0.200 A 
BRANCH  21  24
ATOM     24  O   UNL     1      30.258  40.708 -52.140  1.00  0.00    -0.504 OA
ATOM     25  H   UNL     1      29.465  40.510 -52.672  1.00  0.00     0.293 HD
ENDBRANCH  21  24
BRANCH  22  26
ATOM     26  O   UNL     1      30.938  40.560 -47.446  1.00  0.00    -0.504 OA
ATOM     27  H   UNL     1      31.596  41.224 -47.738  1.00  0.00     0.293 HD
ENDBRANCH  22  26
BRANCH  23  28
ATOM     28  O   UNL     1      31.041  41.911 -49.825  1.00  0.00    -0.502 OA
ATOM     29  H   UNL     1      31.716  41.943 -49.116  1.00  0.00     0.293 HD
ENDBRANCH  23  28
ENDBRANCH   1  18
TORSDOF 10
ENDMDL
MODEL 5
REMARK VINA RESULT:    -5.294      1.924      6.602
REMARK INTER + INTRA:          -8.106
REMARK INTER:                  -7.386
REMARK INTRA:                  -0.721
REMARK UNBOUND:                -0.646
REMARK SMILES CO[C@H]1OC(OC(=O)c2cc(O)c(O)c(O)c2)[C@H](O)[C@@H](O)[C@@H]1O
REMARK SMILES IDX 7 1 8 2 6 3 5 4 3 5 22 6 4 7 20 8 18 9 2 10 1 11 23 12 21 14
REMARK SMILES IDX 19 16 9 18 17 19 10 20 15 21 11 22 13 23 16 24 12 26 14 28
REMARK H PARENT 23 13 21 15 19 17 16 25 12 27 14 29
ROOT
ATOM      1  C   UNL     1      30.317  35.171 -49.195  1.00  0.00     0.340 C 
ATOM      2  O   UNL     1      30.339  35.482 -50.374  1.00  0.00    -0.246 OA
ENDROOT
BRANCH   1   3
ATOM      3  O   UNL     1      29.255  35.235 -48.358  1.00  0.00    -0.429 OA
BRANCH   3   4
ATOM      4  C   UNL     1      29.116  36.460 -47.621  1.00  0.00     0.345 C 
ATOM      5  C   UNL     1      26.795  36.611 -48.145  1.00  0.00     0.285 C 
ATOM      6  C   UNL     1      26.381  36.326 -46.690  1.00  0.00     0.202 C 
ATOM      7  O   UNL     1      28.064  37.254 -48.194  1.00  0.00    -0.308 OA
ATOM      8  C   UNL     1      27.453  35.488 -46.003  1.00  0.00     0.183 C 
ATOM      9  C   UNL     1      28.817  36.165 -46.136  1.00  0.00     0.215 C 
BRANCH   5  10
ATOM     10  O   UNL     1      25.774  37.459 -48.695  1.00  0.00    -0.353 OA
ATOM     11  C   UNL     1      25.822  38.769 -48.142  1.00  0.00     0.198 C 
ENDBRANCH   5  10
BRANCH   6  12
ATOM     12  O   UNL     1      25.130  35.624 -46.625  1.00  0.00    -0.385 OA
ATOM     13  H   UNL     1      25.065  35.302 -45.702  1.00  0.00     0.211 HD
ENDBRANCH   6  12
BRANCH   8  14
ATOM     14  O   UNL     1      27.141  35.332 -44.607  1.00  0.00    -0.387 OA
ATOM     15  H   UNL     1      27.101  36.244 -44.254  1.00  0.00     0.211 HD
ENDBRANCH   8  14
BRANCH   9  16
ATOM     16  O   UNL     1      29.811  35.330 -45.531  1.00  0.00    -0.384 OA
ATOM     17  H   UNL     1      29.318  34.749 -44.918  1.00  0.00     0.211 HD
ENDBRANCH   9  16
ENDBRANCH   3   4
ENDBRANCH   1   3
BRANCH   1  18
ATOM     18  C   UNL     1      31.510  34.645 -48.478  1.00  0.00     0.067 A 
ATOM     19  C   UNL     1      31.359  33.458 -47.739  1.00  0.00     0.066 A 
ATOM     20  C   UNL     1      32.754  35.295 -48.518  1.00  0.00     0.066 A 
ATOM     21  C   UNL     1      32.447  32.932 -47.052  1.00  0.00     0.162 A 
ATOM     22  C   UNL     1      33.827  34.752 -47.822  1.00  0.00     0.162 A 
ATOM     23  C   UNL     1      33.677  33.579 -47.094  1.00  0.00     0.200 A 
BRANCH  21  24
ATOM     24  O   UNL     1      32.359  31.781 -46.321  1.00  0.00    -0.504 OA
ATOM     25  H   UNL     1      31.985  31.083 -46.890  1.00  0.00     0.293 HD
ENDBRANCH  21  24
BRANCH  22  26
ATOM     26  O   UNL     1      35.035  35.384 -47.859  1.00  0.00    -0.504 OA
ATOM     27  H   UNL     1      34.985  35.972 -48.641  1.00  0.00     0.293 HD
ENDBRANCH  22  26
BRANCH  23  28
ATOM     28  O   UNL     1      34.755  33.072 -46.421  1.00  0.00    -0.502 OA
ATOM     29  H   UNL     1      34.449  32.199 -46.097  1.00  0.00     0.293 HD
ENDBRANCH  23  28
ENDBRANCH   1  18
TORSDOF 10
ENDMDL
MODEL 6
REMARK VINA RESULT:    -5.281      8.727     11.351
REMARK INTER + INTRA:          -8.088
REMARK INTER:                  -7.347
REMARK INTRA:                  -0.741
REMARK UNBOUND:                -0.646
REMARK SMILES CO[C@H]1OC(OC(=O)c2cc(O)c(O)c(O)c2)[C@H](O)[C@@H](O)[C@@H]1O
REMARK SMILES IDX 7 1 8 2 6 3 5 4 3 5 22 6 4 7 20 8 18 9 2 10 1 11 23 12 21 14
REMARK SMILES IDX 19 16 9 18 17 19 10 20 15 21 11 22 13 23 16 24 12 26 14 28
REMARK H PARENT 23 13 21 15 19 17 16 25 12 27 14 29
ROOT
ATOM      1  C   UNL     1      30.816  43.682 -51.021  1.00  0.00     0.340 C 
ATOM      2  O   UNL     1      31.277  44.696 -50.522  1.00  0.00    -0.246 OA
ENDROOT
BRANCH   1   3
ATOM      3  O   UNL     1      30.678  43.419 -52.341  1.00  0.00    -0.429 OA
BRANCH   3   4
ATOM      4  C   UNL     1      31.681  43.987 -53.198  1.00  0.00     0.345 C 
ATOM      5  C   UNL     1      31.175  42.453 -54.952  1.00  0.00     0.285 C 
ATOM      6  C   UNL     1      30.572  43.559 -55.834  1.00  0.00     0.202 C 
ATOM      7  O   UNL     1      32.181  42.980 -54.094  1.00  0.00    -0.308 OA
ATOM      8  C   UNL     1      30.021  44.678 -54.957  1.00  0.00     0.183 C 
ATOM      9  C   UNL     1      31.100  45.174 -53.995  1.00  0.00     0.215 C 
BRANCH   5  10
ATOM     10  O   UNL     1      31.732  41.480 -55.849  1.00  0.00    -0.353 OA
ATOM     11  C   UNL     1      31.360  40.155 -55.489  1.00  0.00     0.198 C 
ENDBRANCH   5  10
BRANCH   6  12
ATOM     12  O   UNL     1      29.513  43.055 -56.664  1.00  0.00    -0.385 OA
ATOM     13  H   UNL     1      29.122  43.847 -57.088  1.00  0.00     0.211 HD
ENDBRANCH   6  12
BRANCH   8  14
ATOM     14  O   UNL     1      29.579  45.776 -55.774  1.00  0.00    -0.387 OA
ATOM     15  H   UNL     1      29.436  45.389 -56.662  1.00  0.00     0.211 HD
ENDBRANCH   8  14
BRANCH   9  16
ATOM     16  O   UNL     1      30.539  46.183 -53.148  1.00  0.00    -0.384 OA
ATOM     17  H   UNL     1      29.709  46.454 -53.589  1.00  0.00     0.211 HD
ENDBRANCH   9  16
ENDBRANCH   3   4
ENDBRANCH   1   3
BRANCH   1  18
ATOM     18  C   UNL     1      30.324  42.536 -50.210  1.00  0.00     0.067 A 
ATOM     19  C   UNL     1      31.078  41.349 -50.230  1.00  0.00     0.066 A 
ATOM     20  C   UNL     1      29.149  42.610 -49.445  1.00  0.00     0.066 A 
ATOM     21  C   UNL     1      30.654  40.252 -49.488  1.00  0.00     0.162 A 
ATOM     22  C   UNL     1      28.744  41.501 -48.713  1.00  0.00     0.162 A 
ATOM     23  C   UNL     1      29.489  40.330 -48.733  1.00  0.00     0.200 A 
BRANCH  21  24
ATOM     24  O   UNL     1      31.347  39.075 -49.469  1.00  0.00    -0.504 OA
ATOM     25  H   UNL     1      32.269  39.257 -49.731  1.00  0.00     0.293 HD
ENDBRANCH  21  24
BRANCH  22  26
ATOM     26  O   UNL     1      27.600  41.571 -47.972  1.00  0.00    -0.504 OA
ATOM     27  H   UNL     1      27.650  40.804 -47.366  1.00  0.00     0.293 HD
ENDBRANCH  22  26
BRANCH  23  28
ATOM     28  O   UNL     1      29.061  39.257 -48.000  1.00  0.00    -0.502 OA
ATOM     29  H   UNL     1      29.847  38.991 -47.478  1.00  0.00     0.293 HD
ENDBRANCH  23  28
ENDBRANCH   1  18
TORSDOF 10
ENDMDL
MODEL 7
REMARK VINA RESULT:    -5.180      2.114      6.493
REMARK INTER + INTRA:          -7.946
REMARK INTER:                  -7.288
REMARK INTRA:                  -0.657
REMARK UNBOUND:                -0.646
REMARK SMILES CO[C@H]1OC(OC(=O)c2cc(O)c(O)c(O)c2)[C@H](O)[C@@H](O)[C@@H]1O
REMARK SMILES IDX 7 1 8 2 6 3 5 4 3 5 22 6 4 7 20 8 18 9 2 10 1 11 23 12 21 14
REMARK SMILES IDX 19 16 9 18 17 19 10 20 15 21 11 22 13 23 16 24 12 26 14 28
REMARK H PARENT 23 13 21 15 19 17 16 25 12 27 14 29
ROOT
ATOM      1  C   UNL     1      31.255  35.118 -48.324  1.00  0.00     0.340 C 
ATOM      2  O   UNL     1      32.357  35.633 -48.429  1.00  0.00    -0.246 OA
ENDROOT
BRANCH   1   3
ATOM      3  O   UNL     1      30.068  35.759 -48.214  1.00  0.00    -0.429 OA
BRANCH   3   4
ATOM      4  C   UNL     1      30.040  36.865 -47.298  1.00  0.00     0.345 C 
ATOM      5  C   UNL     1      28.172  37.848 -48.408  1.00  0.00     0.285 C 
ATOM      6  C   UNL     1      27.232  37.551 -47.227  1.00  0.00     0.202 C 
ATOM      7  O   UNL     1      29.511  38.028 -47.957  1.00  0.00    -0.308 OA
ATOM      8  C   UNL     1      27.728  36.328 -46.465  1.00  0.00     0.183 C 
ATOM      9  C   UNL     1      29.189  36.517 -46.058  1.00  0.00     0.215 C 
BRANCH   5  10
ATOM     10  O   UNL     1      27.679  39.047 -49.025  1.00  0.00    -0.353 OA
ATOM     11  C   UNL     1      28.685  40.050 -49.108  1.00  0.00     0.198 C 
ENDBRANCH   5  10
BRANCH   6  12
ATOM     12  O   UNL     1      25.887  37.308 -47.671  1.00  0.00    -0.385 OA
ATOM     13  H   UNL     1      25.472  36.786 -46.954  1.00  0.00     0.211 HD
ENDBRANCH   6  12
BRANCH   8  14
ATOM     14  O   UNL     1      26.934  36.124 -45.283  1.00  0.00    -0.387 OA
ATOM     15  H   UNL     1      26.014  36.043 -45.608  1.00  0.00     0.211 HD
ENDBRANCH   8  14
BRANCH   9  16
ATOM     16  O   UNL     1      29.644  35.332 -45.395  1.00  0.00    -0.384 OA
ATOM     17  H   UNL     1      29.570  34.621 -46.063  1.00  0.00     0.211 HD
ENDBRANCH   9  16
ENDBRANCH   3   4
ENDBRANCH   1   3
BRANCH   1  18
ATOM     18  C   UNL     1      31.052  33.645 -48.310  1.00  0.00     0.067 A 
ATOM     19  C   UNL     1      31.473  32.937 -47.170  1.00  0.00     0.066 A 
ATOM     20  C   UNL     1      30.467  32.960 -49.387  1.00  0.00     0.066 A 
ATOM     21  C   UNL     1      31.305  31.558 -47.116  1.00  0.00     0.162 A 
ATOM     22  C   UNL     1      30.310  31.582 -49.311  1.00  0.00     0.162 A 
ATOM     23  C   UNL     1      30.725  30.884 -48.184  1.00  0.00     0.200 A 
BRANCH  21  24
ATOM     24  O   UNL     1      31.692  30.820 -46.033  1.00  0.00    -0.504 OA
ATOM     25  H   UNL     1      31.113  30.038 -45.970  1.00  0.00     0.293 HD
ENDBRANCH  21  24
BRANCH  22  26
ATOM     26  O   UNL     1      29.744  30.915 -50.358  1.00  0.00    -0.504 OA
ATOM     27  H   UNL     1      30.303  31.143 -51.129  1.00  0.00     0.293 HD
ENDBRANCH  22  26
BRANCH  23  28
ATOM     28  O   UNL     1      30.555  29.527 -48.142  1.00  0.00    -0.502 OA
ATOM     29  H   UNL     1      31.410  29.186 -47.809  1.00  0.00     0.293 HD
ENDBRANCH  23  28
ENDBRANCH   1  18
TORSDOF 10
ENDMDL
MODEL 8
REMARK VINA RESULT:    -5.178      8.590     11.001
REMARK INTER + INTRA:          -7.944
REMARK INTER:                  -7.225
REMARK INTRA:                  -0.719
REMARK UNBOUND:                -0.646
REMARK SMILES CO[C@H]1OC(OC(=O)c2cc(O)c(O)c(O)c2)[C@H](O)[C@@H](O)[C@@H]1O
REMARK SMILES IDX 7 1 8 2 6 3 5 4 3 5 22 6 4 7 20 8 18 9 2 10 1 11 23 12 21 14
REMARK SMILES IDX 19 16 9 18 17 19 10 20 15 21 11 22 13 23 16 24 12 26 14 28
REMARK H PARENT 23 13 21 15 19 17 16 25 12 27 14 29
ROOT
ATOM      1  C   UNL     1      31.074  43.408 -50.825  1.00  0.00     0.340 C 
ATOM      2  O   UNL     1      31.272  44.485 -50.286  1.00  0.00    -0.246 OA
ENDROOT
BRANCH   1   3
ATOM      3  O   UNL     1      31.315  43.091 -52.118  1.00  0.00    -0.429 OA
BRANCH   3   4
ATOM      4  C   UNL     1      30.154  42.949 -52.952  1.00  0.00     0.345 C 
ATOM      5  C   UNL     1      30.692  44.916 -54.186  1.00  0.00     0.285 C 
ATOM      6  C   UNL     1      31.028  44.109 -55.452  1.00  0.00     0.202 C 
ATOM      7  O   UNL     1      29.716  44.243 -53.399  1.00  0.00    -0.308 OA
ATOM      8  C   UNL     1      31.498  42.711 -55.065  1.00  0.00     0.183 C 
ATOM      9  C   UNL     1      30.465  42.040 -54.160  1.00  0.00     0.215 C 
BRANCH   5  10
ATOM     10  O   UNL     1      30.193  46.185 -54.638  1.00  0.00    -0.353 OA
ATOM     11  C   UNL     1      28.943  46.053 -55.304  1.00  0.00     0.198 C 
ENDBRANCH   5  10
BRANCH   6  12
ATOM     12  O   UNL     1      32.055  44.746 -56.228  1.00  0.00    -0.385 OA
ATOM     13  H   UNL     1      32.299  45.547 -55.722  1.00  0.00     0.211 HD
ENDBRANCH   6  12
BRANCH   8  14
ATOM     14  O   UNL     1      31.683  41.906 -56.242  1.00  0.00    -0.387 OA
ATOM     15  H   UNL     1      31.383  41.010 -55.986  1.00  0.00     0.211 HD
ENDBRANCH   8  14
BRANCH   9  16
ATOM     16  O   UNL     1      30.958  40.754 -53.767  1.00  0.00    -0.384 OA
ATOM     17  H   UNL     1      31.846  40.686 -54.171  1.00  0.00     0.211 HD
ENDBRANCH   9  16
ENDBRANCH   3   4
ENDBRANCH   1   3
BRANCH   1  18
ATOM     18  C   UNL     1      30.521  42.234 -50.098  1.00  0.00     0.067 A 
ATOM     19  C   UNL     1      29.331  42.417 -49.369  1.00  0.00     0.066 A 
ATOM     20  C   UNL     1      31.148  40.978 -50.118  1.00  0.00     0.066 A 
ATOM     21  C   UNL     1      28.781  41.346 -48.673  1.00  0.00     0.162 A 
ATOM     22  C   UNL     1      30.580  39.924 -49.414  1.00  0.00     0.162 A 
ATOM     23  C   UNL     1      29.405  40.104 -48.697  1.00  0.00     0.200 A 
BRANCH  21  24
ATOM     24  O   UNL     1      27.627  41.465 -47.952  1.00  0.00    -0.504 OA
ATOM     25  H   UNL     1      27.554  40.694 -47.359  1.00  0.00     0.293 HD
ENDBRANCH  21  24
BRANCH  22  26
ATOM     26  O   UNL     1      31.190  38.703 -49.432  1.00  0.00    -0.504 OA
ATOM     27  H   UNL     1      32.005  38.826 -48.903  1.00  0.00     0.293 HD
ENDBRANCH  22  26
BRANCH  23  28
ATOM     28  O   UNL     1      28.872  39.044 -48.014  1.00  0.00    -0.502 OA
ATOM     29  H   UNL     1      29.522  38.322 -48.144  1.00  0.00     0.293 HD
ENDBRANCH  23  28
ENDBRANCH   1  18
TORSDOF 10
ENDMDL
MODEL 9
REMARK VINA RESULT:    -5.113      7.557      9.516
REMARK INTER + INTRA:          -7.851
REMARK INTER:                  -7.051
REMARK INTRA:                  -0.800
REMARK UNBOUND:                -0.646
REMARK SMILES CO[C@H]1OC(OC(=O)c2cc(O)c(O)c(O)c2)[C@H](O)[C@@H](O)[C@@H]1O
REMARK SMILES IDX 7 1 8 2 6 3 5 4 3 5 22 6 4 7 20 8 18 9 2 10 1 11 23 12 21 14
REMARK SMILES IDX 19 16 9 18 17 19 10 20 15 21 11 22 13 23 16 24 12 26 14 28
REMARK H PARENT 23 13 21 15 19 17 16 25 12 27 14 29
ROOT
ATOM      1  C   UNL     1      30.454  42.423 -50.718  1.00  0.00     0.340 C 
ATOM      2  O   UNL     1      30.091  43.199 -49.849  1.00  0.00    -0.246 OA
ENDROOT
BRANCH   1   3
ATOM      3  O   UNL     1      30.533  41.076 -50.622  1.00  0.00    -0.429 OA
BRANCH   3   4
ATOM      4  C   UNL     1      29.289  40.393 -50.400  1.00  0.00     0.345 C 
ATOM      5  C   UNL     1      30.186  38.325 -51.177  1.00  0.00     0.285 C 
ATOM      6  C   UNL     1      30.149  37.706 -49.769  1.00  0.00     0.202 C 
ATOM      7  O   UNL     1      29.162  39.303 -51.328  1.00  0.00    -0.308 OA
ATOM      8  C   UNL     1      30.272  38.802 -48.718  1.00  0.00     0.183 C 
ATOM      9  C   UNL     1      29.208  39.875 -48.948  1.00  0.00     0.215 C 
BRANCH   5  10
ATOM     10  O   UNL     1      29.993  37.242 -52.100  1.00  0.00    -0.353 OA
ATOM     11  C   UNL     1      30.960  37.258 -53.143  1.00  0.00     0.198 C 
ENDBRANCH   5  10
BRANCH   6  12
ATOM     12  O   UNL     1      31.214  36.759 -49.581  1.00  0.00    -0.385 OA
ATOM     13  H   UNL     1      30.834  36.057 -49.015  1.00  0.00     0.211 HD
ENDBRANCH   6  12
BRANCH   8  14
ATOM     14  O   UNL     1      30.103  38.249 -47.401  1.00  0.00    -0.387 OA
ATOM     15  H   UNL     1      30.667  38.800 -46.821  1.00  0.00     0.211 HD
ENDBRANCH   8  14
BRANCH   9  16
ATOM     16  O   UNL     1      29.384  40.918 -47.982  1.00  0.00    -0.384 OA
ATOM     17  H   UNL     1      30.345  41.097 -47.971  1.00  0.00     0.211 HD
ENDBRANCH   9  16
ENDBRANCH   3   4
ENDBRANCH   1   3
BRANCH   1  18
ATOM     18  C   UNL     1      30.874  42.871 -52.073  1.00  0.00     0.067 A 
ATOM     19  C   UNL     1      30.866  44.253 -52.337  1.00  0.00     0.066 A 
ATOM     20  C   UNL     1      31.264  41.967 -53.073  1.00  0.00     0.066 A 
ATOM     21  C   UNL     1      31.248  44.716 -53.591  1.00  0.00     0.162 A 
ATOM     22  C   UNL     1      31.641  42.452 -54.319  1.00  0.00     0.162 A 
ATOM     23  C   UNL     1      31.634  43.816 -54.578  1.00  0.00     0.200 A 
BRANCH  21  24
ATOM     24  O   UNL     1      31.262  46.046 -53.902  1.00  0.00    -0.504 OA
ATOM     25  H   UNL     1      30.483  46.241 -54.454  1.00  0.00     0.293 HD
ENDBRANCH  21  24
BRANCH  22  26
ATOM     26  O   UNL     1      32.018  41.573 -55.292  1.00  0.00    -0.504 OA
ATOM     27  H   UNL     1      31.176  41.230 -55.657  1.00  0.00     0.293 HD
ENDBRANCH  22  26
BRANCH  23  28
ATOM     28  O   UNL     1      32.012  44.260 -55.816  1.00  0.00    -0.502 OA
ATOM     29  H   UNL     1      32.842  43.775 -56.004  1.00  0.00     0.293 HD
ENDBRANCH  23  28
ENDBRANCH   1  18
TORSDOF 10
ENDMDL
