MODEL 1
REMARK VINA RESULT:    -4.874      0.000      0.000
REMARK INTER + INTRA:          -5.716
REMARK INTER:                  -5.586
REMARK INTRA:                  -0.130
REMARK UNBOUND:                -0.130
REMARK SMILES O=C([O-])/C=C/c1ccc(O)cc1
REMARK SMILES IDX 7 1 8 2 9 3 11 4 12 5 6 6 5 7 4 8 2 9 1 10 3 11 10 12
REMARK H PARENT 10 13
ROOT
ATOM      1  C   UNL     1      30.333  39.343 -50.265  1.00  0.00     0.012 A 
ATOM      2  C   UNL     1      30.468  40.679 -50.653  1.00  0.00     0.047 A 
ATOM      3  C   UNL     1      31.235  41.544 -49.884  1.00  0.00     0.115 A 
ATOM      4  C   UNL     1      31.868  41.098 -48.728  1.00  0.00     0.047 A 
ATOM      5  C   UNL     1      31.729  39.760 -48.344  1.00  0.00     0.012 A 
ATOM      6  C   UNL     1      30.972  38.865 -49.114  1.00  0.00    -0.025 A 
ENDROOT
BRANCH   6   7
ATOM      7  C   UNL     1      30.836  37.478 -48.649  1.00  0.00     0.010 C 
ATOM      8  C   UNL     1      31.793  36.541 -48.727  1.00  0.00     0.025 C 
BRANCH   8   9
ATOM      9  C   UNL     1      31.586  35.115 -48.210  1.00  0.00     0.064 C 
ATOM     10  O   UNL     1      31.299  34.284 -49.118  1.00  0.00    -0.545 OA
ATOM     11  O   UNL     1      31.722  34.940 -46.968  1.00  0.00    -0.545 OA
ENDBRANCH   8   9
ENDBRANCH   6   7
BRANCH   3  12
ATOM     12  O   UNL     1      31.343  42.841 -50.294  1.00  0.00    -0.508 OA
ATOM     13  H   UNL     1      32.261  43.124 -50.149  1.00  0.00     0.293 HD
ENDBRANCH   3  12
TORSDOF 3
ENDMDL
MODEL 2
REMARK VINA RESULT:    -4.730      1.501      5.934
REMARK INTER + INTRA:          -5.551
REMARK INTER:                  -5.413
REMARK INTRA:                  -0.138
REMARK UNBOUND:                -0.130
REMARK SMILES O=C([O-])/C=C/c1ccc(O)cc1
REMARK SMILES IDX 7 1 8 2 9 3 11 4 12 5 6 6 5 7 4 8 2 9 1 10 3 11 10 12
REMARK H PARENT 10 13
ROOT
ATOM      1  C   UNL     1      31.711  36.400 -48.662  1.00  0.00     0.012 A 
ATOM      2  C   UNL     1      32.018  35.100 -48.249  1.00  0.00     0.047 A 
ATOM      3  C   UNL     1      31.327  34.536 -47.184  1.00  0.00     0.115 A 
ATOM      4  C   UNL     1      30.337  35.252 -46.519  1.00  0.00     0.047 A 
ATOM      5  C   UNL     1      30.034  36.552 -46.936  1.00  0.00     0.012 A 
ATOM      6  C   UNL     1      30.708  37.136 -48.018  1.00  0.00    -0.025 A 
ENDROOT
BRANCH   6   7
ATOM      7  C   UNL     1      30.371  38.515 -48.396  1.00  0.00     0.010 C 
ATOM      8  C   UNL     1      31.248  39.527 -48.482  1.00  0.00     0.025 C 
BRANCH   8   9
ATOM      9  C   UNL     1      30.829  40.940 -48.894  1.00  0.00     0.064 C 
ATOM     10  O   UNL     1      29.718  41.300 -48.411  1.00  0.00    -0.545 OA
ATOM     11  O   UNL     1      31.621  41.567 -49.649  1.00  0.00    -0.545 OA
ENDBRANCH   8   9
ENDBRANCH   6   7
BRANCH   3  12
ATOM     12  O   UNL     1      31.654  33.266 -46.809  1.00  0.00    -0.508 OA
ATOM     13  H   UNL     1      30.963  32.946 -46.206  1.00  0.00     0.293 HD
ENDBRANCH   3  12
TORSDOF 3
ENDMDL
MODEL 3
REMARK VINA RESULT:    -4.641      3.589      4.871
REMARK INTER + INTRA:          -5.449
REMARK INTER:                  -5.310
REMARK INTRA:                  -0.139
REMARK UNBOUND:                -0.130
REMARK SMILES O=C([O-])/C=C/c1ccc(O)cc1
REMARK SMILES IDX 7 1 8 2 9 3 11 4 12 5 6 6 5 7 4 8 2 9 1 10 3 11 10 12
REMARK H PARENT 10 13
ROOT
ATOM      1  C   UNL     1      31.382  35.359 -48.240  1.00  0.00     0.012 A 
ATOM      2  C   UNL     1      31.061  36.708 -48.415  1.00  0.00     0.047 A 
ATOM      3  C   UNL     1      30.246  37.347 -47.489  1.00  0.00     0.115 A 
ATOM      4  C   UNL     1      29.742  36.658 -46.391  1.00  0.00     0.047 A 
ATOM      5  C   UNL     1      30.065  35.308 -46.221  1.00  0.00     0.012 A 
ATOM      6  C   UNL     1      30.897  34.647 -47.135  1.00  0.00    -0.025 A 
ENDROOT
BRANCH   6   7
ATOM      7  C   UNL     1      31.181  33.221 -46.925  1.00  0.00     0.010 C 
ATOM      8  C   UNL     1      30.560  32.210 -47.552  1.00  0.00     0.025 C 
BRANCH   8   9
ATOM      9  C   UNL     1      30.916  30.745 -47.292  1.00  0.00     0.064 C 
ATOM     10  O   UNL     1      31.642  30.573 -46.272  1.00  0.00    -0.545 OA
ATOM     11  O   UNL     1      30.454  29.899 -48.106  1.00  0.00    -0.545 OA
ENDBRANCH   8   9
ENDBRANCH   6   7
BRANCH   3  12
ATOM     12  O   UNL     1      29.956  38.664 -47.693  1.00  0.00    -0.508 OA
ATOM     13  H   UNL     1      30.696  39.190 -47.348  1.00  0.00     0.293 HD
ENDBRANCH   3  12
TORSDOF 3
ENDMDL
MODEL 4
REMARK VINA RESULT:    -4.584      1.910      6.386
REMARK INTER + INTRA:          -5.384
REMARK INTER:                  -5.252
REMARK INTRA:                  -0.132
REMARK UNBOUND:                -0.130
REMARK SMILES O=C([O-])/C=C/c1ccc(O)cc1
REMARK SMILES IDX 7 1 8 2 9 3 11 4 12 5 6 6 5 7 4 8 2 9 1 10 3 11 10 12
REMARK H PARENT 10 13
ROOT
ATOM      1  C   UNL     1      30.225  40.114 -50.685  1.00  0.00     0.012 A 
ATOM      2  C   UNL     1      30.085  38.785 -50.279  1.00  0.00     0.047 A 
ATOM      3  C   UNL     1      30.737  38.342 -49.136  1.00  0.00     0.115 A 
ATOM      4  C   UNL     1      31.533  39.206 -48.392  1.00  0.00     0.047 A 
ATOM      5  C   UNL     1      31.671  40.536 -48.802  1.00  0.00     0.012 A 
ATOM      6  C   UNL     1      31.009  41.008 -49.944  1.00  0.00    -0.025 A 
ENDROOT
BRANCH   6   7
ATOM      7  C   UNL     1      31.212  42.407 -50.347  1.00  0.00     0.010 C 
ATOM      8  C   UNL     1      30.315  43.393 -50.189  1.00  0.00     0.025 C 
BRANCH   8   9
ATOM      9  C   UNL     1      30.599  44.833 -50.622  1.00  0.00     0.064 C 
ATOM     10  O   UNL     1      31.223  44.919 -51.718  1.00  0.00    -0.545 OA
ATOM     11  O   UNL     1      30.186  45.745 -49.854  1.00  0.00    -0.545 OA
ENDBRANCH   8   9
ENDBRANCH   6   7
BRANCH   3  12
ATOM     12  O   UNL     1      30.577  37.037 -48.771  1.00  0.00    -0.508 OA
ATOM     13  H   UNL     1      29.766  36.708 -49.192  1.00  0.00     0.293 HD
ENDBRANCH   3  12
TORSDOF 3
ENDMDL
MODEL 5
REMARK VINA RESULT:    -4.518      1.940      5.859
REMARK INTER + INTRA:          -5.308
REMARK INTER:                  -5.178
REMARK INTRA:                  -0.130
REMARK UNBOUND:                -0.130
REMARK SMILES O=C([O-])/C=C/c1ccc(O)cc1
REMARK SMILES IDX 7 1 8 2 9 3 11 4 12 5 6 6 5 7 4 8 2 9 1 10 3 11 10 12
REMARK H PARENT 10 13
ROOT
ATOM      1  C   UNL     1      30.629  35.818 -49.850  1.00  0.00     0.012 A 
ATOM      2  C   UNL     1      30.578  34.422 -49.869  1.00  0.00     0.047 A 
ATOM      3  C   UNL     1      31.444  33.691 -49.065  1.00  0.00     0.115 A 
ATOM      4  C   UNL     1      32.365  34.334 -48.245  1.00  0.00     0.047 A 
ATOM      5  C   UNL     1      32.412  35.732 -48.230  1.00  0.00     0.012 A 
ATOM      6  C   UNL     1      31.537  36.489 -49.021  1.00  0.00    -0.025 A 
ENDROOT
BRANCH   6   7
ATOM      7  C   UNL     1      31.649  37.954 -48.989  1.00  0.00     0.010 C 
ATOM      8  C   UNL     1      30.887  38.770 -48.245  1.00  0.00     0.025 C 
BRANCH   8   9
ATOM      9  C   UNL     1      31.068  40.290 -48.252  1.00  0.00     0.064 C 
ATOM     10  O   UNL     1      29.979  40.930 -48.205  1.00  0.00    -0.545 OA
ATOM     11  O   UNL     1      32.254  40.716 -48.303  1.00  0.00    -0.545 OA
ENDBRANCH   8   9
ENDBRANCH   6   7
BRANCH   3  12
ATOM     12  O   UNL     1      31.365  32.330 -49.111  1.00  0.00    -0.508 OA
ATOM     13  H   UNL     1      31.238  32.069 -50.037  1.00  0.00     0.293 HD
ENDBRANCH   3  12
TORSDOF 3
ENDMDL
MODEL 6
REMARK VINA RESULT:    -4.509      4.587      6.173
REMARK INTER + INTRA:          -5.299
REMARK INTER:                  -5.159
REMARK INTRA:                  -0.140
REMARK UNBOUND:                -0.130
REMARK SMILES O=C([O-])/C=C/c1ccc(O)cc1
REMARK SMILES IDX 7 1 8 2 9 3 11 4 12 5 6 6 5 7 4 8 2 9 1 10 3 11 10 12
REMARK H PARENT 10 13
ROOT
ATOM      1  C   UNL     1      31.273  33.394 -47.166  1.00  0.00     0.012 A 
ATOM      2  C   UNL     1      32.612  33.236 -47.531  1.00  0.00     0.047 A 
ATOM      3  C   UNL     1      33.324  34.323 -48.022  1.00  0.00     0.115 A 
ATOM      4  C   UNL     1      32.717  35.567 -48.159  1.00  0.00     0.047 A 
ATOM      5  C   UNL     1      31.377  35.720 -47.793  1.00  0.00     0.012 A 
ATOM      6  C   UNL     1      30.643  34.640 -47.281  1.00  0.00    -0.025 A 
ENDROOT
BRANCH   6   7
ATOM      7  C   UNL     1      29.230  34.848 -46.939  1.00  0.00     0.010 C 
ATOM      8  C   UNL     1      28.751  35.886 -46.235  1.00  0.00     0.025 C 
BRANCH   8   9
ATOM      9  C   UNL     1      27.261  36.046 -45.925  1.00  0.00     0.064 C 
ATOM     10  O   UNL     1      26.894  35.448 -44.874  1.00  0.00    -0.545 OA
ATOM     11  O   UNL     1      26.588  36.739 -46.736  1.00  0.00    -0.545 OA
ENDBRANCH   8   9
ENDBRANCH   6   7
BRANCH   3  12
ATOM     12  O   UNL     1      34.630  34.130 -48.368  1.00  0.00    -0.508 OA
ATOM     13  H   UNL     1      35.175  34.702 -47.803  1.00  0.00     0.293 HD
ENDBRANCH   3  12
TORSDOF 3
ENDMDL
MODEL 7
REMARK VINA RESULT:    -4.465      3.980      5.138
REMARK INTER + INTRA:          -5.248
REMARK INTER:                  -5.111
REMARK INTRA:                  -0.137
REMARK UNBOUND:                -0.130
REMARK SMILES O=C([O-])/C=C/c1ccc(O)cc1
REMARK SMILES IDX 7 1 8 2 9 3 11 4 12 5 6 6 5 7 4 8 2 9 1 10 3 11 10 12
REMARK H PARENT 10 13
ROOT
ATOM      1  C   UNL     1      30.555  33.552 -50.358  1.00  0.00     0.012 A 
ATOM      2  C   UNL     1      30.122  34.439 -51.347  1.00  0.00     0.047 A 
ATOM      3  C   UNL     1      30.499  35.775 -51.286  1.00  0.00     0.115 A 
ATOM      4  C   UNL     1      31.300  36.241 -50.248  1.00  0.00     0.047 A 
ATOM      5  C   UNL     1      31.730  35.349 -49.260  1.00  0.00     0.012 A 
ATOM      6  C   UNL     1      31.374  33.993 -49.311  1.00  0.00    -0.025 A 
ENDROOT
BRANCH   6   7
ATOM      7  C   UNL     1      31.829  33.106 -48.232  1.00  0.00     0.010 C 
ATOM      8  C   UNL     1      31.048  32.246 -47.559  1.00  0.00     0.025 C 
BRANCH   8   9
ATOM      9  C   UNL     1      31.593  31.341 -46.452  1.00  0.00     0.064 C 
ATOM     10  O   UNL     1      31.364  30.113 -46.643  1.00  0.00    -0.545 OA
ATOM     11  O   UNL     1      32.194  31.912 -45.501  1.00  0.00    -0.545 OA
ENDBRANCH   8   9
ENDBRANCH   6   7
BRANCH   3  12
ATOM     12  O   UNL     1      30.057  36.611 -52.268  1.00  0.00    -0.508 OA
ATOM     13  H   UNL     1      30.829  37.072 -52.637  1.00  0.00     0.293 HD
ENDBRANCH   3  12
TORSDOF 3
ENDMDL
MODEL 8
REMARK VINA RESULT:    -4.439      1.797      2.330
REMARK INTER + INTRA:          -5.218
REMARK INTER:                  -5.082
REMARK INTRA:                  -0.136
REMARK UNBOUND:                -0.130
REMARK SMILES O=C([O-])/C=C/c1ccc(O)cc1
REMARK SMILES IDX 7 1 8 2 9 3 11 4 12 5 6 6 5 7 4 8 2 9 1 10 3 11 10 12
REMARK H PARENT 10 13
ROOT
ATOM      1  C   UNL     1      29.804  37.547 -48.458  1.00  0.00     0.012 A 
ATOM      2  C   UNL     1      29.062  38.724 -48.328  1.00  0.00     0.047 A 
ATOM      3  C   UNL     1      29.706  39.954 -48.388  1.00  0.00     0.115 A 
ATOM      4  C   UNL     1      31.083  40.026 -48.572  1.00  0.00     0.047 A 
ATOM      5  C   UNL     1      31.821  38.845 -48.701  1.00  0.00     0.012 A 
ATOM      6  C   UNL     1      31.190  37.594 -48.659  1.00  0.00    -0.025 A 
ENDROOT
BRANCH   6   7
ATOM      7  C   UNL     1      32.016  36.385 -48.771  1.00  0.00     0.010 C 
ATOM      8  C   UNL     1      32.023  35.371 -47.891  1.00  0.00     0.025 C 
BRANCH   8   9
ATOM      9  C   UNL     1      32.903  34.133 -48.078  1.00  0.00     0.064 C 
ATOM     10  O   UNL     1      34.141  34.374 -47.996  1.00  0.00    -0.545 OA
ATOM     11  O   UNL     1      32.305  33.042 -48.285  1.00  0.00    -0.545 OA
ENDBRANCH   8   9
ENDBRANCH   6   7
BRANCH   3  12
ATOM     12  O   UNL     1      28.950  41.081 -48.257  1.00  0.00    -0.508 OA
ATOM     13  H   UNL     1      28.287  40.916 -47.566  1.00  0.00     0.293 HD
ENDBRANCH   3  12
TORSDOF 3
ENDMDL
MODEL 9
REMARK VINA RESULT:    -4.425      2.491      6.206
REMARK INTER + INTRA:          -5.203
REMARK INTER:                  -5.063
REMARK INTRA:                  -0.140
REMARK UNBOUND:                -0.130
REMARK SMILES O=C([O-])/C=C/c1ccc(O)cc1
REMARK SMILES IDX 7 1 8 2 9 3 11 4 12 5 6 6 5 7 4 8 2 9 1 10 3 11 10 12
REMARK H PARENT 10 13
ROOT
ATOM      1  C   UNL     1      30.092  40.120 -50.548  1.00  0.00     0.012 A 
ATOM      2  C   UNL     1      29.706  39.136 -49.634  1.00  0.00     0.047 A 
ATOM      3  C   UNL     1      30.296  39.095 -48.377  1.00  0.00     0.115 A 
ATOM      4  C   UNL     1      31.270  40.022 -48.018  1.00  0.00     0.047 A 
ATOM      5  C   UNL     1      31.652  41.005 -48.936  1.00  0.00     0.012 A 
ATOM      6  C   UNL     1      31.060  41.073 -50.205  1.00  0.00    -0.025 A 
ENDROOT
BRANCH   6   7
ATOM      7  C   UNL     1      31.520  42.108 -51.142  1.00  0.00     0.010 C 
ATOM      8  C   UNL     1      31.170  42.189 -52.435  1.00  0.00     0.025 C 
BRANCH   8   9
ATOM      9  C   UNL     1      31.679  43.304 -53.351  1.00  0.00     0.064 C 
ATOM     10  O   UNL     1      31.723  44.438 -52.795  1.00  0.00    -0.545 OA
ATOM     11  O   UNL     1      31.989  42.969 -54.528  1.00  0.00    -0.545 OA
ENDBRANCH   8   9
ENDBRANCH   6   7
BRANCH   3  12
ATOM     12  O   UNL     1      29.894  38.120 -47.512  1.00  0.00    -0.508 OA
ATOM     13  H   UNL     1      30.688  37.739 -47.102  1.00  0.00     0.293 HD
ENDBRANCH   3  12
TORSDOF 3
ENDMDL
