MODEL 1
REMARK VINA RESULT:    -4.864      0.000      0.000
REMARK INTER + INTRA:          -5.847
REMARK INTER:                  -5.717
REMARK INTRA:                  -0.129
REMARK UNBOUND:                -0.129
REMARK SMILES O=C([O-])/C=C/c1ccc(O)c(O)c1
REMARK SMILES IDX 7 1 8 2 9 3 11 4 13 5 6 6 5 7 4 8 2 9 1 10 3 11 10 12 12 14
REMARK H PARENT 10 13 12 15
ROOT
ATOM      1  C   UNL     1      31.714  39.776 -48.333  1.00  0.00     0.012 A 
ATOM      2  C   UNL     1      31.871  41.106 -48.734  1.00  0.00     0.051 A 
ATOM      3  C   UNL     1      31.259  41.532 -49.905  1.00  0.00     0.157 A 
ATOM      4  C   UNL     1      30.504  40.644 -50.669  1.00  0.00     0.157 A 
ATOM      5  C   UNL     1      30.345  39.321 -50.274  1.00  0.00     0.058 A 
ATOM      6  C   UNL     1      30.944  38.874 -49.088  1.00  0.00    -0.022 A 
ENDROOT
BRANCH   6   7
ATOM      7  C   UNL     1      30.845  37.484 -48.623  1.00  0.00     0.010 C 
ATOM      8  C   UNL     1      31.838  36.582 -48.663  1.00  0.00     0.025 C 
BRANCH   8   9
ATOM      9  C   UNL     1      31.649  35.142 -48.180  1.00  0.00     0.064 C 
ATOM     10  O   UNL     1      31.719  34.952 -46.934  1.00  0.00    -0.545 OA
ATOM     11  O   UNL     1      31.439  34.316 -49.113  1.00  0.00    -0.545 OA
ENDBRANCH   8   9
ENDBRANCH   6   7
BRANCH   3  12
ATOM     12  O   UNL     1      31.374  42.821 -50.351  1.00  0.00    -0.504 OA
ATOM     13  H   UNL     1      30.889  42.882 -51.192  1.00  0.00     0.293 HD
ENDBRANCH   3  12
BRANCH   4  14
ATOM     14  O   UNL     1      29.918  41.078 -51.825  1.00  0.00    -0.504 OA
ATOM     15  H   UNL     1      29.114  40.530 -51.904  1.00  0.00     0.293 HD
ENDBRANCH   4  14
TORSDOF 4
ENDMDL
MODEL 2
REMARK VINA RESULT:    -4.829      4.113      5.156
REMARK INTER + INTRA:          -5.805
REMARK INTER:                  -5.652
REMARK INTRA:                  -0.153
REMARK UNBOUND:                -0.129
REMARK SMILES O=C([O-])/C=C/c1ccc(O)c(O)c1
REMARK SMILES IDX 7 1 8 2 9 3 11 4 13 5 6 6 5 7 4 8 2 9 1 10 3 11 10 12 12 14
REMARK H PARENT 10 13 12 15
ROOT
ATOM      1  C   UNL     1      30.202  36.807 -47.756  1.00  0.00     0.012 A 
ATOM      2  C   UNL     1      29.040  37.585 -47.753  1.00  0.00     0.051 A 
ATOM      3  C   UNL     1      28.011  37.255 -46.880  1.00  0.00     0.157 A 
ATOM      4  C   UNL     1      28.136  36.162 -46.026  1.00  0.00     0.157 A 
ATOM      5  C   UNL     1      29.290  35.386 -46.024  1.00  0.00     0.058 A 
ATOM      6  C   UNL     1      30.345  35.710 -46.888  1.00  0.00    -0.022 A 
ENDROOT
BRANCH   6   7
ATOM      7  C   UNL     1      31.581  34.920 -46.964  1.00  0.00     0.010 C 
ATOM      8  C   UNL     1      32.676  35.261 -47.661  1.00  0.00     0.025 C 
BRANCH   8   9
ATOM      9  C   UNL     1      33.919  34.370 -47.710  1.00  0.00     0.064 C 
ATOM     10  O   UNL     1      34.935  34.851 -48.286  1.00  0.00    -0.545 OA
ATOM     11  O   UNL     1      33.762  33.247 -47.153  1.00  0.00    -0.545 OA
ENDBRANCH   8   9
ENDBRANCH   6   7
BRANCH   3  12
ATOM     12  O   UNL     1      26.849  37.977 -46.830  1.00  0.00    -0.504 OA
ATOM     13  H   UNL     1      26.693  38.211 -45.899  1.00  0.00     0.293 HD
ENDBRANCH   3  12
BRANCH   4  14
ATOM     14  O   UNL     1      27.109  35.845 -45.181  1.00  0.00    -0.504 OA
ATOM     15  H   UNL     1      26.308  36.110 -45.671  1.00  0.00     0.293 HD
ENDBRANCH   4  14
TORSDOF 4
ENDMDL
MODEL 3
REMARK VINA RESULT:    -4.727      1.988      6.342
REMARK INTER + INTRA:          -5.686
REMARK INTER:                  -5.560
REMARK INTRA:                  -0.126
REMARK UNBOUND:                -0.129
REMARK SMILES O=C([O-])/C=C/c1ccc(O)c(O)c1
REMARK SMILES IDX 7 1 8 2 9 3 11 4 13 5 6 6 5 7 4 8 2 9 1 10 3 11 10 12 12 14
REMARK H PARENT 10 13 12 15
ROOT
ATOM      1  C   UNL     1      30.823  35.860 -49.962  1.00  0.00     0.012 A 
ATOM      2  C   UNL     1      30.691  34.475 -50.103  1.00  0.00     0.051 A 
ATOM      3  C   UNL     1      31.345  33.642 -49.204  1.00  0.00     0.157 A 
ATOM      4  C   UNL     1      32.124  34.181 -48.183  1.00  0.00     0.157 A 
ATOM      5  C   UNL     1      32.258  35.557 -48.038  1.00  0.00     0.058 A 
ATOM      6  C   UNL     1      31.596  36.415 -48.926  1.00  0.00    -0.022 A 
ENDROOT
BRANCH   6   7
ATOM      7  C   UNL     1      31.714  37.878 -48.855  1.00  0.00     0.010 C 
ATOM      8  C   UNL     1      30.828  38.699 -48.270  1.00  0.00     0.025 C 
BRANCH   8   9
ATOM      9  C   UNL     1      31.011  40.218 -48.259  1.00  0.00     0.064 C 
ATOM     10  O   UNL     1      29.958  40.912 -48.191  1.00  0.00    -0.545 OA
ATOM     11  O   UNL     1      32.218  40.586 -48.316  1.00  0.00    -0.545 OA
ENDBRANCH   8   9
ENDBRANCH   6   7
BRANCH   3  12
ATOM     12  O   UNL     1      31.254  32.278 -49.288  1.00  0.00    -0.504 OA
ATOM     13  H   UNL     1      31.182  31.936 -48.381  1.00  0.00     0.293 HD
ENDBRANCH   3  12
BRANCH   4  14
ATOM     14  O   UNL     1      32.769  33.345 -47.314  1.00  0.00    -0.504 OA
ATOM     15  H   UNL     1      32.059  33.012 -46.733  1.00  0.00     0.293 HD
ENDBRANCH   4  14
TORSDOF 4
ENDMDL
MODEL 4
REMARK VINA RESULT:    -4.725      1.597      6.179
REMARK INTER + INTRA:          -5.683
REMARK INTER:                  -5.557
REMARK INTRA:                  -0.127
REMARK UNBOUND:                -0.129
REMARK SMILES O=C([O-])/C=C/c1ccc(O)c(O)c1
REMARK SMILES IDX 7 1 8 2 9 3 11 4 13 5 6 6 5 7 4 8 2 9 1 10 3 11 10 12 12 14
REMARK H PARENT 10 13 12 15
ROOT
ATOM      1  C   UNL     1      31.504  36.627 -48.655  1.00  0.00     0.012 A 
ATOM      2  C   UNL     1      31.784  35.365 -48.120  1.00  0.00     0.051 A 
ATOM      3  C   UNL     1      31.089  34.943 -46.995  1.00  0.00     0.157 A 
ATOM      4  C   UNL     1      30.132  35.766 -46.407  1.00  0.00     0.157 A 
ATOM      5  C   UNL     1      29.849  37.021 -46.936  1.00  0.00     0.058 A 
ATOM      6  C   UNL     1      30.529  37.461 -48.079  1.00  0.00    -0.022 A 
ENDROOT
BRANCH   6   7
ATOM      7  C   UNL     1      30.306  38.785 -48.676  1.00  0.00     0.010 C 
ATOM      8  C   UNL     1      30.999  39.896 -48.377  1.00  0.00     0.025 C 
BRANCH   8   9
ATOM      9  C   UNL     1      30.689  41.246 -49.026  1.00  0.00     0.064 C 
ATOM     10  O   UNL     1      31.587  41.734 -49.767  1.00  0.00    -0.545 OA
ATOM     11  O   UNL     1      29.549  41.704 -48.730  1.00  0.00    -0.545 OA
ENDBRANCH   8   9
ENDBRANCH   6   7
BRANCH   3  12
ATOM     12  O   UNL     1      31.317  33.719 -46.424  1.00  0.00    -0.504 OA
ATOM     13  H   UNL     1      30.891  33.723 -45.550  1.00  0.00     0.293 HD
ENDBRANCH   3  12
BRANCH   4  14
ATOM     14  O   UNL     1      29.465  35.338 -45.293  1.00  0.00    -0.504 OA
ATOM     15  H   UNL     1      29.442  34.367 -45.388  1.00  0.00     0.293 HD
ENDBRANCH   4  14
TORSDOF 4
ENDMDL
MODEL 5
REMARK VINA RESULT:    -4.714      3.389      4.987
REMARK INTER + INTRA:          -5.670
REMARK INTER:                  -5.541
REMARK INTRA:                  -0.129
REMARK UNBOUND:                -0.129
REMARK SMILES O=C([O-])/C=C/c1ccc(O)c(O)c1
REMARK SMILES IDX 7 1 8 2 9 3 11 4 13 5 6 6 5 7 4 8 2 9 1 10 3 11 10 12 12 14
REMARK H PARENT 10 13 12 15
ROOT
ATOM      1  C   UNL     1      31.879  35.058 -48.663  1.00  0.00     0.012 A 
ATOM      2  C   UNL     1      31.674  36.399 -49.006  1.00  0.00     0.051 A 
ATOM      3  C   UNL     1      30.838  37.175 -48.215  1.00  0.00     0.157 A 
ATOM      4  C   UNL     1      30.210  36.623 -47.101  1.00  0.00     0.157 A 
ATOM      5  C   UNL     1      30.411  35.291 -46.756  1.00  0.00     0.058 A 
ATOM      6  C   UNL     1      31.262  34.494 -47.533  1.00  0.00    -0.022 A 
ENDROOT
BRANCH   6   7
ATOM      7  C   UNL     1      31.499  33.073 -47.248  1.00  0.00     0.010 C 
ATOM      8  C   UNL     1      30.665  32.070 -47.566  1.00  0.00     0.025 C 
BRANCH   8   9
ATOM      9  C   UNL     1      30.973  30.613 -47.213  1.00  0.00     0.064 C 
ATOM     10  O   UNL     1      31.718  30.422 -46.212  1.00  0.00    -0.545 OA
ATOM     11  O   UNL     1      30.426  29.776 -47.984  1.00  0.00    -0.545 OA
ENDBRANCH   8   9
ENDBRANCH   6   7
BRANCH   3  12
ATOM     12  O   UNL     1      30.597  38.493 -48.498  1.00  0.00    -0.504 OA
ATOM     13  H   UNL     1      30.602  38.587 -49.466  1.00  0.00     0.293 HD
ENDBRANCH   3  12
BRANCH   4  14
ATOM     14  O   UNL     1      29.380  37.399 -46.340  1.00  0.00    -0.504 OA
ATOM     15  H   UNL     1      29.517  38.302 -46.685  1.00  0.00     0.293 HD
ENDBRANCH   4  14
TORSDOF 4
ENDMDL
MODEL 6
REMARK VINA RESULT:    -4.654      1.632      2.610
REMARK INTER + INTRA:          -5.600
REMARK INTER:                  -5.477
REMARK INTRA:                  -0.123
REMARK UNBOUND:                -0.129
REMARK SMILES O=C([O-])/C=C/c1ccc(O)c(O)c1
REMARK SMILES IDX 7 1 8 2 9 3 11 4 13 5 6 6 5 7 4 8 2 9 1 10 3 11 10 12 12 14
REMARK H PARENT 10 13 12 15
ROOT
ATOM      1  C   UNL     1      30.588  37.719 -50.579  1.00  0.00     0.012 A 
ATOM      2  C   UNL     1      30.028  38.987 -50.771  1.00  0.00     0.051 A 
ATOM      3  C   UNL     1      30.112  39.921 -49.747  1.00  0.00     0.157 A 
ATOM      4  C   UNL     1      30.740  39.596 -48.547  1.00  0.00     0.157 A 
ATOM      5  C   UNL     1      31.298  38.338 -48.352  1.00  0.00     0.058 A 
ATOM      6  C   UNL     1      31.237  37.385 -49.377  1.00  0.00    -0.022 A 
ENDROOT
BRANCH   6   7
ATOM      7  C   UNL     1      31.777  36.027 -49.234  1.00  0.00     0.010 C 
ATOM      8  C   UNL     1      32.169  35.467 -48.078  1.00  0.00     0.025 C 
BRANCH   8   9
ATOM      9  C   UNL     1      32.746  34.052 -48.013  1.00  0.00     0.064 C 
ATOM     10  O   UNL     1      32.146  33.168 -48.686  1.00  0.00    -0.545 OA
ATOM     11  O   UNL     1      33.772  33.953 -47.282  1.00  0.00    -0.545 OA
ENDBRANCH   8   9
ENDBRANCH   6   7
BRANCH   3  12
ATOM     12  O   UNL     1      29.584  41.178 -49.873  1.00  0.00    -0.504 OA
ATOM     13  H   UNL     1      29.589  41.401 -50.819  1.00  0.00     0.293 HD
ENDBRANCH   3  12
BRANCH   4  14
ATOM     14  O   UNL     1      30.803  40.525 -47.545  1.00  0.00    -0.504 OA
ATOM     15  H   UNL     1      31.468  40.164 -46.929  1.00  0.00     0.293 HD
ENDBRANCH   4  14
TORSDOF 4
ENDMDL
MODEL 7
REMARK VINA RESULT:    -4.649      1.610      6.163
REMARK INTER + INTRA:          -5.594
REMARK INTER:                  -5.472
REMARK INTRA:                  -0.122
REMARK UNBOUND:                -0.129
REMARK SMILES O=C([O-])/C=C/c1ccc(O)c(O)c1
REMARK SMILES IDX 7 1 8 2 9 3 11 4 13 5 6 6 5 7 4 8 2 9 1 10 3 11 10 12 12 14
REMARK H PARENT 10 13 12 15
ROOT
ATOM      1  C   UNL     1      29.787  36.637 -46.857  1.00  0.00     0.012 A 
ATOM      2  C   UNL     1      30.004  35.342 -46.377  1.00  0.00     0.051 A 
ATOM      3  C   UNL     1      31.046  34.593 -46.909  1.00  0.00     0.157 A 
ATOM      4  C   UNL     1      31.858  35.126 -47.907  1.00  0.00     0.157 A 
ATOM      5  C   UNL     1      31.647  36.413 -48.387  1.00  0.00     0.058 A 
ATOM      6  C   UNL     1      30.609  37.190 -47.855  1.00  0.00    -0.022 A 
ENDROOT
BRANCH   6   7
ATOM      7  C   UNL     1      30.306  38.546 -48.333  1.00  0.00     0.010 C 
ATOM      8  C   UNL     1      31.164  39.579 -48.325  1.00  0.00     0.025 C 
BRANCH   8   9
ATOM      9  C   UNL     1      30.765  40.971 -48.818  1.00  0.00     0.064 C 
ATOM     10  O   UNL     1      31.608  41.578 -49.536  1.00  0.00    -0.545 OA
ATOM     11  O   UNL     1      29.617  41.337 -48.436  1.00  0.00    -0.545 OA
ENDBRANCH   8   9
ENDBRANCH   6   7
BRANCH   3  12
ATOM     12  O   UNL     1      31.310  33.319 -46.481  1.00  0.00    -0.504 OA
ATOM     13  H   UNL     1      31.436  32.769 -47.272  1.00  0.00     0.293 HD
ENDBRANCH   3  12
BRANCH   4  14
ATOM     14  O   UNL     1      32.872  34.370 -48.427  1.00  0.00    -0.504 OA
ATOM     15  H   UNL     1      33.602  35.006 -48.551  1.00  0.00     0.293 HD
ENDBRANCH   4  14
TORSDOF 4
ENDMDL
MODEL 8
REMARK VINA RESULT:    -4.636      3.508      4.856
REMARK INTER + INTRA:          -5.578
REMARK INTER:                  -5.450
REMARK INTRA:                  -0.128
REMARK UNBOUND:                -0.129
REMARK SMILES O=C([O-])/C=C/c1ccc(O)c(O)c1
REMARK SMILES IDX 7 1 8 2 9 3 11 4 13 5 6 6 5 7 4 8 2 9 1 10 3 11 10 12 12 14
REMARK H PARENT 10 13 12 15
ROOT
ATOM      1  C   UNL     1      30.007  35.260 -46.340  1.00  0.00     0.012 A 
ATOM      2  C   UNL     1      29.664  36.610 -46.469  1.00  0.00     0.051 A 
ATOM      3  C   UNL     1      30.183  37.337 -47.533  1.00  0.00     0.157 A 
ATOM      4  C   UNL     1      31.035  36.730 -48.452  1.00  0.00     0.157 A 
ATOM      5  C   UNL     1      31.378  35.388 -48.328  1.00  0.00     0.058 A 
ATOM      6  C   UNL     1      30.855  34.633 -47.270  1.00  0.00    -0.022 A 
ENDROOT
BRANCH   6   7
ATOM      7  C   UNL     1      31.196  33.220 -47.058  1.00  0.00     0.010 C 
ATOM      8  C   UNL     1      30.513  32.176 -47.553  1.00  0.00     0.025 C 
BRANCH   8   9
ATOM      9  C   UNL     1      30.918  30.728 -47.265  1.00  0.00     0.064 C 
ATOM     10  O   UNL     1      30.452  29.848 -48.041  1.00  0.00    -0.545 OA
ATOM     11  O   UNL     1      31.686  30.603 -46.270  1.00  0.00    -0.545 OA
ENDBRANCH   8   9
ENDBRANCH   6   7
BRANCH   3  12
ATOM     12  O   UNL     1      29.885  38.661 -47.714  1.00  0.00    -0.504 OA
ATOM     13  H   UNL     1      28.950  38.782 -47.480  1.00  0.00     0.293 HD
ENDBRANCH   3  12
BRANCH   4  14
ATOM     14  O   UNL     1      31.546  37.464 -49.487  1.00  0.00    -0.504 OA
ATOM     15  H   UNL     1      30.873  37.384 -50.189  1.00  0.00     0.293 HD
ENDBRANCH   4  14
TORSDOF 4
ENDMDL
MODEL 9
REMARK VINA RESULT:    -4.441      5.204      9.063
REMARK INTER + INTRA:          -5.349
REMARK INTER:                  -5.218
REMARK INTRA:                  -0.131
REMARK UNBOUND:                -0.129
REMARK SMILES O=C([O-])/C=C/c1ccc(O)c(O)c1
REMARK SMILES IDX 7 1 8 2 9 3 11 4 13 5 6 6 5 7 4 8 2 9 1 10 3 11 10 12 12 14
REMARK H PARENT 10 13 12 15
ROOT
ATOM      1  C   UNL     1      30.786  31.347 -49.815  1.00  0.00     0.012 A 
ATOM      2  C   UNL     1      30.337  30.062 -50.138  1.00  0.00     0.051 A 
ATOM      3  C   UNL     1      30.057  29.170 -49.112  1.00  0.00     0.157 A 
ATOM      4  C   UNL     1      30.227  29.549 -47.782  1.00  0.00     0.157 A 
ATOM      5  C   UNL     1      30.672  30.825 -47.456  1.00  0.00     0.058 A 
ATOM      6  C   UNL     1      30.947  31.745 -48.476  1.00  0.00    -0.022 A 
ENDROOT
BRANCH   6   7
ATOM      7  C   UNL     1      31.450  33.100 -48.210  1.00  0.00     0.010 C 
ATOM      8  C   UNL     1      32.744  33.456 -48.191  1.00  0.00     0.025 C 
BRANCH   8   9
ATOM      9  C   UNL     1      33.190  34.887 -47.881  1.00  0.00     0.064 C 
ATOM     10  O   UNL     1      34.198  35.013 -47.131  1.00  0.00    -0.545 OA
ATOM     11  O   UNL     1      32.476  35.772 -48.431  1.00  0.00    -0.545 OA
ENDBRANCH   8   9
ENDBRANCH   6   7
BRANCH   3  12
ATOM     12  O   UNL     1      29.614  27.898 -49.362  1.00  0.00    -0.504 OA
ATOM     13  H   UNL     1      28.931  27.960 -50.051  1.00  0.00     0.293 HD
ENDBRANCH   3  12
BRANCH   4  14
ATOM     14  O   UNL     1      29.957  28.654 -46.785  1.00  0.00    -0.504 OA
ATOM     15  H   UNL     1      30.586  28.890 -46.077  1.00  0.00     0.293 HD
ENDBRANCH   4  14
TORSDOF 4
ENDMDL
