MODEL 1
REMARK VINA RESULT:    -4.080      0.000      0.000
REMARK INTER + INTRA:          -5.527
REMARK INTER:                  -4.915
REMARK INTRA:                  -0.611
REMARK UNBOUND:                -0.611
REMARK SMILES O=C1O[C@H]([C@@H](O)CO)C([O-])=C1O
REMARK SMILES IDX 5 1 7 2 8 3 4 5 9 6 3 7 11 8 2 9 1 10 10 11 12 12 6 14
REMARK H PARENT 8 4 12 13 6 15
ROOT
ATOM      1  C   UNL     1      31.953  35.015 -47.652  1.00  0.00     0.184 C 
ENDROOT
BRANCH   1   2
ATOM      2  C   UNL     1      30.535  35.169 -47.091  1.00  0.00     0.192 C 
BRANCH   2   3
ATOM      3  O   UNL     1      30.537  34.762 -45.713  1.00  0.00    -0.394 OA
ATOM      4  H   UNL     1      31.310  35.236 -45.340  1.00  0.00     0.210 HD
ENDBRANCH   2   3
ENDBRANCH   1   2
BRANCH   1   5
ATOM      5  C   UNL     1      32.334  33.562 -48.021  1.00  0.00     0.227 C 
ATOM      6  C   UNL     1      31.326  32.827 -48.866  1.00  0.00    -0.037 C 
ATOM      7  O   UNL     1      32.474  32.767 -46.829  1.00  0.00    -0.450 OA
ATOM      8  C   UNL     1      30.972  31.720 -48.214  1.00  0.00     0.193 C 
ATOM      9  C   UNL     1      31.686  31.655 -46.930  1.00  0.00     0.373 C 
ATOM     10  O   UNL     1      31.601  30.784 -46.079  1.00  0.00    -0.243 OA
ATOM     11  O   UNL     1      31.000  33.332 -49.974  1.00  0.00    -0.870 OA
BRANCH   8  12
ATOM     12  O   UNL     1      30.069  30.812 -48.697  1.00  0.00    -0.502 OA
ATOM     13  H   UNL     1      30.291  30.032 -48.142  1.00  0.00     0.293 HD
ENDBRANCH   8  12
ENDBRANCH   1   5
BRANCH   1  14
ATOM     14  O   UNL     1      32.072  35.895 -48.792  1.00  0.00    -0.387 OA
ATOM     15  H   UNL     1      32.130  36.795 -48.372  1.00  0.00     0.211 HD
ENDBRANCH   1  14
TORSDOF 5
ENDMDL
MODEL 2
REMARK VINA RESULT:    -4.022      9.932     11.706
REMARK INTER + INTRA:          -5.457
REMARK INTER:                  -4.996
REMARK INTRA:                  -0.461
REMARK UNBOUND:                -0.611
REMARK SMILES O=C1O[C@H]([C@@H](O)CO)C([O-])=C1O
REMARK SMILES IDX 5 1 7 2 8 3 4 5 9 6 3 7 11 8 2 9 1 10 10 11 12 12 6 14
REMARK H PARENT 8 4 12 13 6 15
ROOT
ATOM      1  C   UNL     1      31.378  43.260 -54.217  1.00  0.00     0.184 C 
ENDROOT
BRANCH   1   2
ATOM      2  C   UNL     1      31.393  41.842 -54.799  1.00  0.00     0.192 C 
BRANCH   2   3
ATOM      3  O   UNL     1      32.536  41.143 -54.279  1.00  0.00    -0.394 OA
ATOM      4  H   UNL     1      33.013  41.835 -53.775  1.00  0.00     0.210 HD
ENDBRANCH   2   3
ENDBRANCH   1   2
BRANCH   1   5
ATOM      5  C   UNL     1      30.451  43.432 -52.991  1.00  0.00     0.227 C 
ATOM      6  C   UNL     1      30.680  44.681 -52.179  1.00  0.00    -0.037 C 
ATOM      7  O   UNL     1      30.641  42.344 -52.067  1.00  0.00    -0.450 OA
ATOM      8  C   UNL     1      30.940  44.313 -50.925  1.00  0.00     0.193 C 
ATOM      9  C   UNL     1      30.916  42.846 -50.826  1.00  0.00     0.373 C 
ATOM     10  O   UNL     1      31.115  42.169 -49.830  1.00  0.00    -0.243 OA
ATOM     11  O   UNL     1      30.595  45.793 -52.766  1.00  0.00    -0.870 OA
BRANCH   8  12
ATOM     12  O   UNL     1      31.197  45.200 -49.914  1.00  0.00    -0.502 OA
ATOM     13  H   UNL     1      32.170  45.093 -49.831  1.00  0.00     0.293 HD
ENDBRANCH   8  12
ENDBRANCH   1   5
BRANCH   1  14
ATOM     14  O   UNL     1      32.742  43.619 -53.898  1.00  0.00    -0.387 OA
ATOM     15  H   UNL     1      33.240  42.777 -54.080  1.00  0.00     0.211 HD
ENDBRANCH   1  14
TORSDOF 5
ENDMDL
MODEL 3
REMARK VINA RESULT:    -3.966      8.461     10.664
REMARK INTER + INTRA:          -5.389
REMARK INTER:                  -4.794
REMARK INTRA:                  -0.596
REMARK UNBOUND:                -0.611
REMARK SMILES O=C1O[C@H]([C@@H](O)CO)C([O-])=C1O
REMARK SMILES IDX 5 1 7 2 8 3 4 5 9 6 3 7 11 8 2 9 1 10 10 11 12 12 6 14
REMARK H PARENT 8 4 12 13 6 15
ROOT
ATOM      1  C   UNL     1      29.217  40.970 -49.349  1.00  0.00     0.184 C 
ENDROOT
BRANCH   1   2
ATOM      2  C   UNL     1      27.806  40.696 -48.818  1.00  0.00     0.192 C 
BRANCH   2   3
ATOM      3  O   UNL     1      27.544  41.587 -47.721  1.00  0.00    -0.394 OA
ATOM      4  H   UNL     1      26.634  41.904 -47.902  1.00  0.00     0.210 HD
ENDBRANCH   2   3
ENDBRANCH   1   2
BRANCH   1   5
ATOM      5  C   UNL     1      29.300  42.152 -50.345  1.00  0.00     0.227 C 
ATOM      6  C   UNL     1      30.631  42.855 -50.401  1.00  0.00    -0.037 C 
ATOM      7  O   UNL     1      28.351  43.173 -49.984  1.00  0.00    -0.450 OA
ATOM      8  C   UNL     1      30.427  44.143 -50.127  1.00  0.00     0.193 C 
ATOM      9  C   UNL     1      28.998  44.372 -49.867  1.00  0.00     0.373 C 
ATOM     10  O   UNL     1      28.457  45.428 -49.583  1.00  0.00    -0.243 OA
ATOM     11  O   UNL     1      31.653  42.171 -50.677  1.00  0.00    -0.870 OA
BRANCH   8  12
ATOM     12  O   UNL     1      31.426  45.079 -50.094  1.00  0.00    -0.502 OA
ATOM     13  H   UNL     1      32.059  44.636 -49.487  1.00  0.00     0.293 HD
ENDBRANCH   8  12
ENDBRANCH   1   5
BRANCH   1  14
ATOM     14  O   UNL     1      30.082  41.182 -48.210  1.00  0.00    -0.387 OA
ATOM     15  H   UNL     1      30.912  41.540 -48.627  1.00  0.00     0.211 HD
ENDBRANCH   1  14
TORSDOF 5
ENDMDL
MODEL 4
REMARK VINA RESULT:    -3.939      5.365      7.206
REMARK INTER + INTRA:          -5.357
REMARK INTER:                  -4.817
REMARK INTRA:                  -0.540
REMARK UNBOUND:                -0.611
REMARK SMILES O=C1O[C@H]([C@@H](O)CO)C([O-])=C1O
REMARK SMILES IDX 5 1 7 2 8 3 4 5 9 6 3 7 11 8 2 9 1 10 10 11 12 12 6 14
REMARK H PARENT 8 4 12 13 6 15
ROOT
ATOM      1  C   UNL     1      25.653  39.425 -47.468  1.00  0.00     0.184 C 
ENDROOT
BRANCH   1   2
ATOM      2  C   UNL     1      26.349  40.455 -48.364  1.00  0.00     0.192 C 
BRANCH   2   3
ATOM      3  O   UNL     1      27.481  40.990 -47.659  1.00  0.00    -0.394 OA
ATOM      4  H   UNL     1      27.234  41.928 -47.516  1.00  0.00     0.210 HD
ENDBRANCH   2   3
ENDBRANCH   1   2
BRANCH   1   5
ATOM      5  C   UNL     1      26.157  37.974 -47.660  1.00  0.00     0.227 C 
ATOM      6  C   UNL     1      25.879  37.038 -46.512  1.00  0.00    -0.037 C 
ATOM      7  O   UNL     1      27.588  37.962 -47.816  1.00  0.00    -0.450 OA
ATOM      8  C   UNL     1      27.043  36.538 -46.100  1.00  0.00     0.193 C 
ATOM      9  C   UNL     1      28.136  37.099 -46.909  1.00  0.00     0.373 C 
ATOM     10  O   UNL     1      29.329  36.865 -46.804  1.00  0.00    -0.243 OA
ATOM     11  O   UNL     1      24.682  36.884 -46.149  1.00  0.00    -0.870 OA
BRANCH   8  12
ATOM     12  O   UNL     1      27.162  35.646 -45.068  1.00  0.00    -0.502 OA
ATOM     13  H   UNL     1      27.513  34.866 -45.550  1.00  0.00     0.293 HD
ENDBRANCH   8  12
ENDBRANCH   1   5
BRANCH   1  14
ATOM     14  O   UNL     1      25.809  39.857 -46.098  1.00  0.00    -0.387 OA
ATOM     15  H   UNL     1      26.234  39.069 -45.664  1.00  0.00     0.211 HD
ENDBRANCH   1  14
TORSDOF 5
ENDMDL
MODEL 5
REMARK VINA RESULT:    -3.901      8.612     10.377
REMARK INTER + INTRA:          -5.310
REMARK INTER:                  -4.979
REMARK INTRA:                  -0.331
REMARK UNBOUND:                -0.611
REMARK SMILES O=C1O[C@H]([C@@H](O)CO)C([O-])=C1O
REMARK SMILES IDX 5 1 7 2 8 3 4 5 9 6 3 7 11 8 2 9 1 10 10 11 12 12 6 14
REMARK H PARENT 8 4 12 13 6 15
ROOT
ATOM      1  C   UNL     1      30.512  44.215 -51.752  1.00  0.00     0.184 C 
ENDROOT
BRANCH   1   2
ATOM      2  C   UNL     1      31.093  44.483 -53.145  1.00  0.00     0.192 C 
BRANCH   2   3
ATOM      3  O   UNL     1      32.416  43.924 -53.209  1.00  0.00    -0.394 OA
ATOM      4  H   UNL     1      32.326  43.209 -53.873  1.00  0.00     0.210 HD
ENDBRANCH   2   3
ENDBRANCH   1   2
BRANCH   1   5
ATOM      5  C   UNL     1      30.368  42.713 -51.406  1.00  0.00     0.227 C 
ATOM      6  C   UNL     1      29.276  42.382 -50.421  1.00  0.00    -0.037 C 
ATOM      7  O   UNL     1      31.579  42.223 -50.802  1.00  0.00    -0.450 OA
ATOM      8  C   UNL     1      29.832  41.744 -49.392  1.00  0.00     0.193 C 
ATOM      9  C   UNL     1      31.282  41.626 -49.609  1.00  0.00     0.373 C 
ATOM     10  O   UNL     1      32.101  41.104 -48.870  1.00  0.00    -0.243 OA
ATOM     11  O   UNL     1      28.098  42.731 -50.701  1.00  0.00    -0.870 OA
BRANCH   8  12
ATOM     12  O   UNL     1      29.126  41.293 -48.309  1.00  0.00    -0.502 OA
ATOM     13  H   UNL     1      29.678  40.523 -48.049  1.00  0.00     0.293 HD
ENDBRANCH   8  12
ENDBRANCH   1   5
BRANCH   1  14
ATOM     14  O   UNL     1      31.346  44.898 -50.789  1.00  0.00    -0.387 OA
ATOM     15  H   UNL     1      30.708  45.108 -50.054  1.00  0.00     0.211 HD
ENDBRANCH   1  14
TORSDOF 5
ENDMDL
MODEL 6
REMARK VINA RESULT:    -3.886      8.866     11.077
REMARK INTER + INTRA:          -5.292
REMARK INTER:                  -4.658
REMARK INTRA:                  -0.634
REMARK UNBOUND:                -0.611
REMARK SMILES O=C1O[C@H]([C@@H](O)CO)C([O-])=C1O
REMARK SMILES IDX 5 1 7 2 8 3 4 5 9 6 3 7 11 8 2 9 1 10 10 11 12 12 6 14
REMARK H PARENT 8 4 12 13 6 15
ROOT
ATOM      1  C   UNL     1      31.107  43.243 -54.656  1.00  0.00     0.184 C 
ENDROOT
BRANCH   1   2
ATOM      2  C   UNL     1      31.173  41.990 -55.537  1.00  0.00     0.192 C 
BRANCH   2   3
ATOM      3  O   UNL     1      32.202  41.124 -55.030  1.00  0.00    -0.394 OA
ATOM      4  H   UNL     1      31.851  40.844 -54.159  1.00  0.00     0.210 HD
ENDBRANCH   2   3
ENDBRANCH   1   2
BRANCH   1   5
ATOM      5  C   UNL     1      30.277  43.064 -53.362  1.00  0.00     0.227 C 
ATOM      6  C   UNL     1      30.942  43.544 -52.098  1.00  0.00    -0.037 C 
ATOM      7  O   UNL     1      30.003  41.669 -53.136  1.00  0.00    -0.450 OA
ATOM      8  C   UNL     1      30.999  42.518 -51.250  1.00  0.00     0.193 C 
ATOM      9  C   UNL     1      30.409  41.326 -51.877  1.00  0.00     0.373 C 
ATOM     10  O   UNL     1      30.299  40.212 -51.390  1.00  0.00    -0.243 OA
ATOM     11  O   UNL     1      31.312  44.747 -52.043  1.00  0.00    -0.870 OA
BRANCH   8  12
ATOM     12  O   UNL     1      31.544  42.601 -49.997  1.00  0.00    -0.502 OA
ATOM     13  H   UNL     1      31.921  41.698 -49.910  1.00  0.00     0.293 HD
ENDBRANCH   8  12
ENDBRANCH   1   5
BRANCH   1  14
ATOM     14  O   UNL     1      32.463  43.643 -54.358  1.00  0.00    -0.387 OA
ATOM     15  H   UNL     1      32.723  43.019 -53.627  1.00  0.00     0.211 HD
ENDBRANCH   1  14
TORSDOF 5
ENDMDL
MODEL 7
REMARK VINA RESULT:    -3.831      1.379      3.727
REMARK INTER + INTRA:          -5.226
REMARK INTER:                  -4.858
REMARK INTRA:                  -0.368
REMARK UNBOUND:                -0.611
REMARK SMILES O=C1O[C@H]([C@@H](O)CO)C([O-])=C1O
REMARK SMILES IDX 5 1 7 2 8 3 4 5 9 6 3 7 11 8 2 9 1 10 10 11 12 12 6 14
REMARK H PARENT 8 4 12 13 6 15
ROOT
ATOM      1  C   UNL     1      30.731  31.986 -47.937  1.00  0.00     0.184 C 
ENDROOT
BRANCH   1   2
ATOM      2  C   UNL     1      30.908  30.649 -47.209  1.00  0.00     0.192 C 
BRANCH   2   3
ATOM      3  O   UNL     1      31.750  30.857 -46.062  1.00  0.00    -0.394 OA
ATOM      4  H   UNL     1      32.568  30.368 -46.293  1.00  0.00     0.210 HD
ENDBRANCH   2   3
ENDBRANCH   1   2
BRANCH   1   5
ATOM      5  C   UNL     1      31.361  33.194 -47.204  1.00  0.00     0.227 C 
ATOM      6  C   UNL     1      30.974  34.547 -47.743  1.00  0.00    -0.037 C 
ATOM      7  O   UNL     1      32.796  33.146 -47.308  1.00  0.00    -0.450 OA
ATOM      8  C   UNL     1      32.092  35.190 -48.080  1.00  0.00     0.193 C 
ATOM      9  C   UNL     1      33.254  34.331 -47.810  1.00  0.00     0.373 C 
ATOM     10  O   UNL     1      34.430  34.596 -48.002  1.00  0.00    -0.243 OA
ATOM     11  O   UNL     1      29.749  34.840 -47.787  1.00  0.00    -0.870 OA
BRANCH   8  12
ATOM     12  O   UNL     1      32.110  36.454 -48.606  1.00  0.00    -0.502 OA
ATOM     13  H   UNL     1      31.883  36.979 -47.807  1.00  0.00     0.293 HD
ENDBRANCH   8  12
ENDBRANCH   1   5
BRANCH   1  14
ATOM     14  O   UNL     1      31.275  31.837 -49.268  1.00  0.00    -0.387 OA
ATOM     15  H   UNL     1      31.723  32.712 -49.423  1.00  0.00     0.211 HD
ENDBRANCH   1  14
TORSDOF 5
ENDMDL
MODEL 8
REMARK VINA RESULT:    -3.718      9.929     11.727
REMARK INTER + INTRA:          -5.090
REMARK INTER:                  -4.503
REMARK INTRA:                  -0.588
REMARK UNBOUND:                -0.611
REMARK SMILES O=C1O[C@H]([C@@H](O)CO)C([O-])=C1O
REMARK SMILES IDX 5 1 7 2 8 3 4 5 9 6 3 7 11 8 2 9 1 10 10 11 12 12 6 14
REMARK H PARENT 8 4 12 13 6 15
ROOT
ATOM      1  C   UNL     1      30.575  42.784 -52.815  1.00  0.00     0.184 C 
ENDROOT
BRANCH   1   2
ATOM      2  C   UNL     1      31.244  43.795 -53.752  1.00  0.00     0.192 C 
BRANCH   2   3
ATOM      3  O   UNL     1      32.667  43.726 -53.565  1.00  0.00    -0.394 OA
ATOM      4  H   UNL     1      32.775  43.881 -52.603  1.00  0.00     0.210 HD
ENDBRANCH   2   3
ENDBRANCH   1   2
BRANCH   1   5
ATOM      5  C   UNL     1      30.767  43.091 -51.311  1.00  0.00     0.227 C 
ATOM      6  C   UNL     1      29.565  42.830 -50.441  1.00  0.00    -0.037 C 
ATOM      7  O   UNL     1      31.070  44.486 -51.123  1.00  0.00    -0.450 OA
ATOM      8  C   UNL     1      29.258  43.965 -49.814  1.00  0.00     0.193 C 
ATOM      9  C   UNL     1      30.194  45.023 -50.221  1.00  0.00     0.373 C 
ATOM     10  O   UNL     1      30.205  46.185 -49.848  1.00  0.00    -0.243 OA
ATOM     11  O   UNL     1      29.074  41.669 -50.440  1.00  0.00    -0.870 OA
BRANCH   8  12
ATOM     12  O   UNL     1      28.212  44.088 -48.938  1.00  0.00    -0.502 OA
ATOM     13  H   UNL     1      28.470  43.421 -48.264  1.00  0.00     0.293 HD
ENDBRANCH   8  12
ENDBRANCH   1   5
BRANCH   1  14
ATOM     14  O   UNL     1      29.173  42.722 -53.163  1.00  0.00    -0.387 OA
ATOM     15  H   UNL     1      29.168  42.115 -53.952  1.00  0.00     0.211 HD
ENDBRANCH   1  14
TORSDOF 5
ENDMDL
MODEL 9
REMARK VINA RESULT:    -3.703      2.560      4.329
REMARK INTER + INTRA:          -5.072
REMARK INTER:                  -4.503
REMARK INTRA:                  -0.569
REMARK UNBOUND:                -0.611
REMARK SMILES O=C1O[C@H]([C@@H](O)CO)C([O-])=C1O
REMARK SMILES IDX 5 1 7 2 8 3 4 5 9 6 3 7 11 8 2 9 1 10 10 11 12 12 6 14
REMARK H PARENT 8 4 12 13 6 15
ROOT
ATOM      1  C   UNL     1      27.846  36.670 -46.486  1.00  0.00     0.184 C 
ENDROOT
BRANCH   1   2
ATOM      2  C   UNL     1      27.157  35.373 -46.049  1.00  0.00     0.192 C 
BRANCH   2   3
ATOM      3  O   UNL     1      27.156  35.313 -44.613  1.00  0.00    -0.394 OA
ATOM      4  H   UNL     1      27.830  34.629 -44.416  1.00  0.00     0.210 HD
ENDBRANCH   2   3
ENDBRANCH   1   2
BRANCH   1   5
ATOM      5  C   UNL     1      29.383  36.663 -46.303  1.00  0.00     0.227 C 
ATOM      6  C   UNL     1      30.179  37.033 -47.528  1.00  0.00    -0.037 C 
ATOM      7  O   UNL     1      29.835  35.344 -45.946  1.00  0.00    -0.450 OA
ATOM      8  C   UNL     1      31.009  36.026 -47.796  1.00  0.00     0.193 C 
ATOM      9  C   UNL     1      30.817  34.952 -46.811  1.00  0.00     0.373 C 
ATOM     10  O   UNL     1      31.405  33.884 -46.757  1.00  0.00    -0.243 OA
ATOM     11  O   UNL     1      29.956  38.151 -48.066  1.00  0.00    -0.870 OA
BRANCH   8  12
ATOM     12  O   UNL     1      31.886  36.028 -48.848  1.00  0.00    -0.502 OA
ATOM     13  H   UNL     1      32.660  35.589 -48.431  1.00  0.00     0.293 HD
ENDBRANCH   8  12
ENDBRANCH   1   5
BRANCH   1  14
ATOM     14  O   UNL     1      27.483  36.919 -47.863  1.00  0.00    -0.387 OA
ATOM     15  H   UNL     1      28.357  37.138 -48.286  1.00  0.00     0.211 HD
ENDBRANCH   1  14
TORSDOF 5
ENDMDL
