MODEL 1
REMARK VINA RESULT:    -4.121      0.000      0.000
REMARK INTER + INTRA:          -5.569
REMARK INTER:                  -4.964
REMARK INTRA:                  -0.605
REMARK UNBOUND:                -0.605
REMARK SMILES O=C1O[C@H]([C@@H](O)CO)C([O-])=C1O
REMARK SMILES IDX 5 1 7 2 8 3 4 5 9 6 3 7 11 8 2 9 1 10 10 11 12 12 6 14
REMARK H PARENT 8 4 12 13 6 15
ROOT
ATOM      1  C   UNL     1      32.007  35.020 -47.690  1.00  0.00     0.184 C 
ENDROOT
BRANCH   1   2
ATOM      2  C   UNL     1      30.586  35.198 -47.142  1.00  0.00     0.192 C 
BRANCH   2   3
ATOM      3  O   UNL     1      30.567  34.782 -45.767  1.00  0.00    -0.394 OA
ATOM      4  H   UNL     1      31.281  35.317 -45.360  1.00  0.00     0.210 HD
ENDBRANCH   2   3
ENDBRANCH   1   2
BRANCH   1   5
ATOM      5  C   UNL     1      32.372  33.558 -48.040  1.00  0.00     0.227 C 
ATOM      6  C   UNL     1      31.352  32.820 -48.868  1.00  0.00    -0.037 C 
ATOM      7  O   UNL     1      32.514  32.779 -46.838  1.00  0.00    -0.450 OA
ATOM      8  C   UNL     1      30.992  31.726 -48.197  1.00  0.00     0.193 C 
ATOM      9  C   UNL     1      31.714  31.673 -46.917  1.00  0.00     0.373 C 
ATOM     10  O   UNL     1      31.627  30.815 -46.053  1.00  0.00    -0.243 OA
ATOM     11  O   UNL     1      31.022  33.311 -49.981  1.00  0.00    -0.870 OA
BRANCH   8  12
ATOM     12  O   UNL     1      30.077  30.819 -48.660  1.00  0.00    -0.502 OA
ATOM     13  H   UNL     1      30.393  30.006 -48.208  1.00  0.00     0.293 HD
ENDBRANCH   8  12
ENDBRANCH   1   5
BRANCH   1  14
ATOM     14  O   UNL     1      32.146  35.885 -48.840  1.00  0.00    -0.387 OA
ATOM     15  H   UNL     1      33.129  35.885 -48.999  1.00  0.00     0.211 HD
ENDBRANCH   1  14
TORSDOF 5
ENDMDL
MODEL 2
REMARK VINA RESULT:    -4.028      9.939     11.703
REMARK INTER + INTRA:          -5.457
REMARK INTER:                  -5.008
REMARK INTRA:                  -0.449
REMARK UNBOUND:                -0.605
REMARK SMILES O=C1O[C@H]([C@@H](O)CO)C([O-])=C1O
REMARK SMILES IDX 5 1 7 2 8 3 4 5 9 6 3 7 11 8 2 9 1 10 10 11 12 12 6 14
REMARK H PARENT 8 4 12 13 6 15
ROOT
ATOM      1  C   UNL     1      31.424  43.268 -54.209  1.00  0.00     0.184 C 
ENDROOT
BRANCH   1   2
ATOM      2  C   UNL     1      31.436  41.848 -54.785  1.00  0.00     0.192 C 
BRANCH   2   3
ATOM      3  O   UNL     1      32.579  41.149 -54.266  1.00  0.00    -0.394 OA
ATOM      4  H   UNL     1      32.260  40.226 -54.181  1.00  0.00     0.210 HD
ENDBRANCH   2   3
ENDBRANCH   1   2
BRANCH   1   5
ATOM      5  C   UNL     1      30.465  43.456 -53.009  1.00  0.00     0.227 C 
ATOM      6  C   UNL     1      30.695  44.700 -52.190  1.00  0.00    -0.037 C 
ATOM      7  O   UNL     1      30.608  42.365 -52.082  1.00  0.00    -0.450 OA
ATOM      8  C   UNL     1      30.913  44.326 -50.929  1.00  0.00     0.193 C 
ATOM      9  C   UNL     1      30.857  42.860 -50.833  1.00  0.00     0.373 C 
ATOM     10  O   UNL     1      31.015  42.178 -49.833  1.00  0.00    -0.243 OA
ATOM     11  O   UNL     1      30.648  45.814 -52.777  1.00  0.00    -0.870 OA
BRANCH   8  12
ATOM     12  O   UNL     1      31.157  45.207 -49.910  1.00  0.00    -0.502 OA
ATOM     13  H   UNL     1      30.767  46.025 -50.288  1.00  0.00     0.293 HD
ENDBRANCH   8  12
ENDBRANCH   1   5
BRANCH   1  14
ATOM     14  O   UNL     1      32.783  43.610 -53.854  1.00  0.00    -0.387 OA
ATOM     15  H   UNL     1      33.315  43.185 -54.580  1.00  0.00     0.211 HD
ENDBRANCH   1  14
TORSDOF 5
ENDMDL
MODEL 3
REMARK VINA RESULT:    -3.965      8.442     10.648
REMARK INTER + INTRA:          -5.381
REMARK INTER:                  -4.773
REMARK INTRA:                  -0.609
REMARK UNBOUND:                -0.605
REMARK SMILES O=C1O[C@H]([C@@H](O)CO)C([O-])=C1O
REMARK SMILES IDX 5 1 7 2 8 3 4 5 9 6 3 7 11 8 2 9 1 10 10 11 12 12 6 14
REMARK H PARENT 8 4 12 13 6 15
ROOT
ATOM      1  C   UNL     1      29.184  40.953 -49.334  1.00  0.00     0.184 C 
ENDROOT
BRANCH   1   2
ATOM      2  C   UNL     1      27.766  40.740 -48.792  1.00  0.00     0.192 C 
BRANCH   2   3
ATOM      3  O   UNL     1      27.541  41.663 -47.714  1.00  0.00    -0.394 OA
ATOM      4  H   UNL     1      26.821  41.239 -47.201  1.00  0.00     0.210 HD
ENDBRANCH   2   3
ENDBRANCH   1   2
BRANCH   1   5
ATOM      5  C   UNL     1      29.305  42.113 -50.352  1.00  0.00     0.227 C 
ATOM      6  C   UNL     1      30.641  42.810 -50.377  1.00  0.00    -0.037 C 
ATOM      7  O   UNL     1      28.349  43.144 -50.047  1.00  0.00    -0.450 OA
ATOM      8  C   UNL     1      30.432  44.104 -50.139  1.00  0.00     0.193 C 
ATOM      9  C   UNL     1      28.996  44.343 -49.934  1.00  0.00     0.373 C 
ATOM     10  O   UNL     1      28.450  45.407 -49.691  1.00  0.00    -0.243 OA
ATOM     11  O   UNL     1      31.669  42.116 -50.603  1.00  0.00    -0.870 OA
BRANCH   8  12
ATOM     12  O   UNL     1      31.434  45.037 -50.092  1.00  0.00    -0.502 OA
ATOM     13  H   UNL     1      32.088  44.562 -49.534  1.00  0.00     0.293 HD
ENDBRANCH   8  12
ENDBRANCH   1   5
BRANCH   1  14
ATOM     14  O   UNL     1      30.061  41.153 -48.203  1.00  0.00    -0.387 OA
ATOM     15  H   UNL     1      29.649  41.931 -47.738  1.00  0.00     0.211 HD
ENDBRANCH   1  14
TORSDOF 5
ENDMDL
MODEL 4
REMARK VINA RESULT:    -3.950      5.361      7.199
REMARK INTER + INTRA:          -5.363
REMARK INTER:                  -4.822
REMARK INTRA:                  -0.540
REMARK UNBOUND:                -0.605
REMARK SMILES O=C1O[C@H]([C@@H](O)CO)C([O-])=C1O
REMARK SMILES IDX 5 1 7 2 8 3 4 5 9 6 3 7 11 8 2 9 1 10 10 11 12 12 6 14
REMARK H PARENT 8 4 12 13 6 15
ROOT
ATOM      1  C   UNL     1      25.692  39.420 -47.481  1.00  0.00     0.184 C 
ENDROOT
BRANCH   1   2
ATOM      2  C   UNL     1      26.407  40.444 -48.370  1.00  0.00     0.192 C 
BRANCH   2   3
ATOM      3  O   UNL     1      27.522  40.987 -47.644  1.00  0.00    -0.394 OA
ATOM      4  H   UNL     1      27.661  41.861 -48.066  1.00  0.00     0.210 HD
ENDBRANCH   2   3
ENDBRANCH   1   2
BRANCH   1   5
ATOM      5  C   UNL     1      26.192  37.966 -47.661  1.00  0.00     0.227 C 
ATOM      6  C   UNL     1      25.899  37.037 -46.511  1.00  0.00    -0.037 C 
ATOM      7  O   UNL     1      27.624  37.947 -47.803  1.00  0.00    -0.450 OA
ATOM      8  C   UNL     1      27.057  36.534 -46.086  1.00  0.00     0.193 C 
ATOM      9  C   UNL     1      28.160  37.087 -46.886  1.00  0.00     0.373 C 
ATOM     10  O   UNL     1      29.351  36.849 -46.769  1.00  0.00    -0.243 OA
ATOM     11  O   UNL     1      24.698  36.890 -46.159  1.00  0.00    -0.870 OA
BRANCH   8  12
ATOM     12  O   UNL     1      27.162  35.647 -45.048  1.00  0.00    -0.502 OA
ATOM     13  H   UNL     1      26.239  35.313 -45.010  1.00  0.00     0.293 HD
ENDBRANCH   8  12
ENDBRANCH   1   5
BRANCH   1  14
ATOM     14  O   UNL     1      25.830  39.856 -46.110  1.00  0.00    -0.387 OA
ATOM     15  H   UNL     1      25.010  40.401 -45.967  1.00  0.00     0.211 HD
ENDBRANCH   1  14
TORSDOF 5
ENDMDL
MODEL 5
REMARK VINA RESULT:    -3.911      8.604     10.362
REMARK INTER + INTRA:          -5.316
REMARK INTER:                  -4.991
REMARK INTRA:                  -0.325
REMARK UNBOUND:                -0.605
REMARK SMILES O=C1O[C@H]([C@@H](O)CO)C([O-])=C1O
REMARK SMILES IDX 5 1 7 2 8 3 4 5 9 6 3 7 11 8 2 9 1 10 10 11 12 12 6 14
REMARK H PARENT 8 4 12 13 6 15
ROOT
ATOM      1  C   UNL     1      30.493  44.211 -51.737  1.00  0.00     0.184 C 
ENDROOT
BRANCH   1   2
ATOM      2  C   UNL     1      31.067  44.480 -53.132  1.00  0.00     0.192 C 
BRANCH   2   3
ATOM      3  O   UNL     1      32.410  43.970 -53.184  1.00  0.00    -0.394 OA
ATOM      4  H   UNL     1      32.363  43.159 -52.636  1.00  0.00     0.210 HD
ENDBRANCH   2   3
ENDBRANCH   1   2
BRANCH   1   5
ATOM      5  C   UNL     1      30.354  42.709 -51.388  1.00  0.00     0.227 C 
ATOM      6  C   UNL     1      29.259  42.374 -50.409  1.00  0.00    -0.037 C 
ATOM      7  O   UNL     1      31.565  42.227 -50.777  1.00  0.00    -0.450 OA
ATOM      8  C   UNL     1      29.813  41.741 -49.376  1.00  0.00     0.193 C 
ATOM      9  C   UNL     1      31.264  41.630 -49.585  1.00  0.00     0.373 C 
ATOM     10  O   UNL     1      32.083  41.114 -48.840  1.00  0.00    -0.243 OA
ATOM     11  O   UNL     1      28.081  42.715 -50.697  1.00  0.00    -0.870 OA
BRANCH   8  12
ATOM     12  O   UNL     1      29.104  41.288 -48.296  1.00  0.00    -0.502 OA
ATOM     13  H   UNL     1      28.187  41.447 -48.610  1.00  0.00     0.293 HD
ENDBRANCH   8  12
ENDBRANCH   1   5
BRANCH   1  14
ATOM     14  O   UNL     1      31.327  44.897 -50.777  1.00  0.00    -0.387 OA
ATOM     15  H   UNL     1      32.124  45.150 -51.318  1.00  0.00     0.211 HD
ENDBRANCH   1  14
TORSDOF 5
ENDMDL
MODEL 6
REMARK VINA RESULT:    -3.829      1.368      3.724
REMARK INTER + INTRA:          -5.217
REMARK INTER:                  -4.851
REMARK INTRA:                  -0.366
REMARK UNBOUND:                -0.605
REMARK SMILES O=C1O[C@H]([C@@H](O)CO)C([O-])=C1O
REMARK SMILES IDX 5 1 7 2 8 3 4 5 9 6 3 7 11 8 2 9 1 10 10 11 12 12 6 14
REMARK H PARENT 8 4 12 13 6 15
ROOT
ATOM      1  C   UNL     1      30.712  31.964 -47.962  1.00  0.00     0.184 C 
ENDROOT
BRANCH   1   2
ATOM      2  C   UNL     1      30.866  30.627 -47.228  1.00  0.00     0.192 C 
BRANCH   2   3
ATOM      3  O   UNL     1      31.712  30.825 -46.083  1.00  0.00    -0.394 OA
ATOM      4  H   UNL     1      31.683  29.956 -45.630  1.00  0.00     0.210 HD
ENDBRANCH   2   3
ENDBRANCH   1   2
BRANCH   1   5
ATOM      5  C   UNL     1      31.327  33.171 -47.214  1.00  0.00     0.227 C 
ATOM      6  C   UNL     1      30.937  34.526 -47.748  1.00  0.00    -0.037 C 
ATOM      7  O   UNL     1      32.763  33.132 -47.303  1.00  0.00    -0.450 OA
ATOM      8  C   UNL     1      32.055  35.177 -48.068  1.00  0.00     0.193 C 
ATOM      9  C   UNL     1      33.220  34.323 -47.792  1.00  0.00     0.373 C 
ATOM     10  O   UNL     1      34.396  34.597 -47.970  1.00  0.00    -0.243 OA
ATOM     11  O   UNL     1      29.711  34.812 -47.802  1.00  0.00    -0.870 OA
BRANCH   8  12
ATOM     12  O   UNL     1      32.071  36.445 -48.585  1.00  0.00    -0.502 OA
ATOM     13  H   UNL     1      31.981  36.971 -47.760  1.00  0.00     0.293 HD
ENDBRANCH   8  12
ENDBRANCH   1   5
BRANCH   1  14
ATOM     14  O   UNL     1      31.289  31.812 -49.278  1.00  0.00    -0.387 OA
ATOM     15  H   UNL     1      32.096  31.257 -49.103  1.00  0.00     0.211 HD
ENDBRANCH   1  14
TORSDOF 5
ENDMDL
MODEL 7
REMARK VINA RESULT:    -3.789      9.775     11.575
REMARK INTER + INTRA:          -5.169
REMARK INTER:                  -4.543
REMARK INTRA:                  -0.626
REMARK UNBOUND:                -0.605
REMARK SMILES O=C1O[C@H]([C@@H](O)CO)C([O-])=C1O
REMARK SMILES IDX 5 1 7 2 8 3 4 5 9 6 3 7 11 8 2 9 1 10 10 11 12 12 6 14
REMARK H PARENT 8 4 12 13 6 15
ROOT
ATOM      1  C   UNL     1      30.795  41.080 -55.807  1.00  0.00     0.184 C 
ENDROOT
BRANCH   1   2
ATOM      2  C   UNL     1      30.697  39.626 -55.329  1.00  0.00     0.192 C 
BRANCH   2   3
ATOM      3  O   UNL     1      31.937  39.263 -54.700  1.00  0.00    -0.394 OA
ATOM      4  H   UNL     1      31.875  39.689 -53.819  1.00  0.00     0.210 HD
ENDBRANCH   2   3
ENDBRANCH   1   2
BRANCH   1   5
ATOM      5  C   UNL     1      30.413  42.126 -54.732  1.00  0.00     0.227 C 
ATOM      6  C   UNL     1      31.251  43.378 -54.726  1.00  0.00    -0.037 C 
ATOM      7  O   UNL     1      30.568  41.565 -53.415  1.00  0.00    -0.450 OA
ATOM      8  C   UNL     1      31.788  43.507 -53.514  1.00  0.00     0.193 C 
ATOM      9  C   UNL     1      31.369  42.381 -52.666  1.00  0.00     0.373 C 
ATOM     10  O   UNL     1      31.675  42.177 -51.502  1.00  0.00    -0.243 OA
ATOM     11  O   UNL     1      31.309  44.058 -55.786  1.00  0.00    -0.870 OA
BRANCH   8  12
ATOM     12  O   UNL     1      32.609  44.542 -53.155  1.00  0.00    -0.502 OA
ATOM     13  H   UNL     1      32.276  45.246 -53.755  1.00  0.00     0.293 HD
ENDBRANCH   8  12
ENDBRANCH   1   5
BRANCH   1  14
ATOM     14  O   UNL     1      32.139  41.293 -56.293  1.00  0.00    -0.387 OA
ATOM     15  H   UNL     1      32.511  41.942 -55.637  1.00  0.00     0.211 HD
ENDBRANCH   1  14
TORSDOF 5
ENDMDL
MODEL 8
REMARK VINA RESULT:    -3.754      9.741     11.508
REMARK INTER + INTRA:          -5.127
REMARK INTER:                  -4.564
REMARK INTRA:                  -0.563
REMARK UNBOUND:                -0.605
REMARK SMILES O=C1O[C@H]([C@@H](O)CO)C([O-])=C1O
REMARK SMILES IDX 5 1 7 2 8 3 4 5 9 6 3 7 11 8 2 9 1 10 10 11 12 12 6 14
REMARK H PARENT 8 4 12 13 6 15
ROOT
ATOM      1  C   UNL     1      30.867  42.472 -52.686  1.00  0.00     0.184 C 
ENDROOT
BRANCH   1   2
ATOM      2  C   UNL     1      31.384  43.557 -53.637  1.00  0.00     0.192 C 
BRANCH   2   3
ATOM      3  O   UNL     1      32.820  43.572 -53.581  1.00  0.00    -0.394 OA
ATOM      4  H   UNL     1      33.076  42.838 -54.178  1.00  0.00     0.210 HD
ENDBRANCH   2   3
ENDBRANCH   1   2
BRANCH   1   5
ATOM      5  C   UNL     1      30.932  42.858 -51.189  1.00  0.00     0.227 C 
ATOM      6  C   UNL     1      29.655  42.655 -50.415  1.00  0.00    -0.037 C 
ATOM      7  O   UNL     1      31.236  44.258 -51.050  1.00  0.00    -0.450 OA
ATOM      8  C   UNL     1      29.311  43.824 -49.878  1.00  0.00     0.193 C 
ATOM      9  C   UNL     1      30.293  44.850 -50.257  1.00  0.00     0.373 C 
ATOM     10  O   UNL     1      30.288  46.031 -49.947  1.00  0.00    -0.243 OA
ATOM     11  O   UNL     1      29.151  41.500 -50.395  1.00  0.00    -0.870 OA
BRANCH   8  12
ATOM     12  O   UNL     1      28.195  44.003 -49.104  1.00  0.00    -0.502 OA
ATOM     13  H   UNL     1      28.583  43.889 -48.209  1.00  0.00     0.293 HD
ENDBRANCH   8  12
ENDBRANCH   1   5
BRANCH   1  14
ATOM     14  O   UNL     1      29.516  42.145 -53.085  1.00  0.00    -0.387 OA
ATOM     15  H   UNL     1      29.097  41.857 -52.230  1.00  0.00     0.211 HD
ENDBRANCH   1  14
TORSDOF 5
ENDMDL
MODEL 9
REMARK VINA RESULT:    -3.659      1.816      4.017
REMARK INTER + INTRA:          -5.013
REMARK INTER:                  -4.437
REMARK INTRA:                  -0.576
REMARK UNBOUND:                -0.605
REMARK SMILES O=C1O[C@H]([C@@H](O)CO)C([O-])=C1O
REMARK SMILES IDX 5 1 7 2 8 3 4 5 9 6 3 7 11 8 2 9 1 10 10 11 12 12 6 14
REMARK H PARENT 8 4 12 13 6 15
ROOT
ATOM      1  C   UNL     1      31.875  33.863 -48.047  1.00  0.00     0.184 C 
ENDROOT
BRANCH   1   2
ATOM      2  C   UNL     1      31.745  32.437 -47.500  1.00  0.00     0.192 C 
BRANCH   2   3
ATOM      3  O   UNL     1      31.848  32.483 -46.067  1.00  0.00    -0.394 OA
ATOM      4  H   UNL     1      30.943  32.732 -45.784  1.00  0.00     0.210 HD
ENDBRANCH   2   3
ENDBRANCH   1   2
BRANCH   1   5
ATOM      5  C   UNL     1      30.536  34.634 -48.130  1.00  0.00     0.227 C 
ATOM      6  C   UNL     1      30.654  36.136 -48.101  1.00  0.00    -0.037 C 
ATOM      7  O   UNL     1      29.700  34.301 -47.006  1.00  0.00    -0.450 OA
ATOM      8  C   UNL     1      29.928  36.584 -47.077  1.00  0.00     0.193 C 
ATOM      9  C   UNL     1      29.312  35.450 -46.375  1.00  0.00     0.373 C 
ATOM     10  O   UNL     1      28.588  35.492 -45.393  1.00  0.00    -0.243 OA
ATOM     11  O   UNL     1      31.365  36.693 -48.980  1.00  0.00    -0.870 OA
BRANCH   8  12
ATOM     12  O   UNL     1      29.810  37.910 -46.756  1.00  0.00    -0.502 OA
ATOM     13  H   UNL     1      30.181  38.320 -47.568  1.00  0.00     0.293 HD
ENDBRANCH   8  12
ENDBRANCH   1   5
BRANCH   1  14
ATOM     14  O   UNL     1      32.834  34.564 -47.225  1.00  0.00    -0.387 OA
ATOM     15  H   UNL     1      33.696  34.389 -47.691  1.00  0.00     0.211 HD
ENDBRANCH   1  14
TORSDOF 5
ENDMDL
