MODEL 1
REMARK VINA RESULT:    -5.214      0.000      0.000
REMARK INTER + INTRA:          -6.834
REMARK INTER:                  -6.586
REMARK INTRA:                  -0.248
REMARK UNBOUND:                -0.248
REMARK SMILES O=C([O-])[C@H](O)Cc1ccc(O)c(O)c1
REMARK SMILES IDX 6 1 7 2 8 3 9 4 10 5 14 6 12 7 11 8 13 10 4 12 2 13 1 14
REMARK SMILES IDX 3 15 5 16
REMARK H PARENT 11 9 13 11 5 17
ROOT
ATOM      1  C   UNL     1      32.094  33.336 -47.947  1.00  0.00     0.073 C 
ENDROOT
BRANCH   1   2
ATOM      2  C   UNL     1      31.470  34.712 -47.824  1.00  0.00    -0.041 A 
ATOM      3  C   UNL     1      31.799  35.735 -48.730  1.00  0.00     0.008 A 
ATOM      4  C   UNL     1      31.216  37.000 -48.616  1.00  0.00     0.050 A 
ATOM      5  C   UNL     1      30.297  37.234 -47.604  1.00  0.00     0.157 A 
ATOM      6  C   UNL     1      30.538  34.969 -46.809  1.00  0.00     0.054 A 
ATOM      7  C   UNL     1      29.954  36.224 -46.710  1.00  0.00     0.157 A 
BRANCH   5   8
ATOM      8  O   UNL     1      29.716  38.466 -47.489  1.00  0.00    -0.504 OA
ATOM      9  H   UNL     1      28.783  38.258 -47.281  1.00  0.00     0.293 HD
ENDBRANCH   5   8
BRANCH   7  10
ATOM     10  O   UNL     1      29.024  36.502 -45.743  1.00  0.00    -0.504 OA
ATOM     11  H   UNL     1      29.178  37.428 -45.479  1.00  0.00     0.293 HD
ENDBRANCH   7  10
ENDBRANCH   1   2
BRANCH   1  12
ATOM     12  C   UNL     1      31.105  32.205 -47.661  1.00  0.00     0.164 C 
BRANCH  12  13
ATOM     13  C   UNL     1      31.594  31.310 -46.480  1.00  0.00     0.070 C 
ATOM     14  O   UNL     1      32.252  31.958 -45.605  1.00  0.00    -0.547 OA
ATOM     15  O   UNL     1      31.303  30.085 -46.528  1.00  0.00    -0.547 OA
ENDBRANCH  12  13
BRANCH  12  16
ATOM     16  O   UNL     1      30.977  31.378 -48.854  1.00  0.00    -0.387 OA
ATOM     17  H   UNL     1      30.297  30.718 -48.562  1.00  0.00     0.211 HD
ENDBRANCH  12  16
ENDBRANCH   1  12
TORSDOF 6
ENDMDL
MODEL 2
REMARK VINA RESULT:    -5.009      0.753      1.819
REMARK INTER + INTRA:          -6.574
REMARK INTER:                  -6.334
REMARK INTRA:                  -0.240
REMARK UNBOUND:                -0.248
REMARK SMILES O=C([O-])[C@H](O)Cc1ccc(O)c(O)c1
REMARK SMILES IDX 6 1 7 2 8 3 9 4 10 5 14 6 12 7 11 8 13 10 4 12 2 13 1 14
REMARK SMILES IDX 3 15 5 16
REMARK H PARENT 11 9 13 11 5 17
ROOT
ATOM      1  C   UNL     1      32.048  33.298 -48.005  1.00  0.00     0.073 C 
ENDROOT
BRANCH   1   2
ATOM      2  C   UNL     1      31.421  34.673 -47.888  1.00  0.00    -0.041 A 
ATOM      3  C   UNL     1      30.560  34.984 -46.821  1.00  0.00     0.008 A 
ATOM      4  C   UNL     1      29.990  36.256 -46.715  1.00  0.00     0.050 A 
ATOM      5  C   UNL     1      30.293  37.216 -47.668  1.00  0.00     0.157 A 
ATOM      6  C   UNL     1      31.715  35.659 -48.841  1.00  0.00     0.054 A 
ATOM      7  C   UNL     1      31.155  36.923 -48.722  1.00  0.00     0.157 A 
BRANCH   5   8
ATOM      8  O   UNL     1      29.746  38.465 -47.569  1.00  0.00    -0.504 OA
ATOM      9  H   UNL     1      29.040  38.350 -46.902  1.00  0.00     0.293 HD
ENDBRANCH   5   8
BRANCH   7  10
ATOM     10  O   UNL     1      31.439  37.916 -49.622  1.00  0.00    -0.504 OA
ATOM     11  H   UNL     1      30.820  38.643 -49.426  1.00  0.00     0.293 HD
ENDBRANCH   7  10
ENDBRANCH   1   2
BRANCH   1  12
ATOM     12  C   UNL     1      31.073  32.168 -47.672  1.00  0.00     0.164 C 
BRANCH  12  13
ATOM     13  C   UNL     1      31.601  31.294 -46.493  1.00  0.00     0.070 C 
ATOM     14  O   UNL     1      32.348  31.940 -45.691  1.00  0.00    -0.547 OA
ATOM     15  O   UNL     1      31.249  30.083 -46.472  1.00  0.00    -0.547 OA
ENDBRANCH  12  13
BRANCH  12  16
ATOM     16  O   UNL     1      30.912  31.322 -48.848  1.00  0.00    -0.387 OA
ATOM     17  H   UNL     1      30.993  30.418 -48.450  1.00  0.00     0.211 HD
ENDBRANCH  12  16
ENDBRANCH   1  12
TORSDOF 6
ENDMDL
MODEL 3
REMARK VINA RESULT:    -4.923      2.107      2.748
REMARK INTER + INTRA:          -6.466
REMARK INTER:                  -6.266
REMARK INTRA:                  -0.201
REMARK UNBOUND:                -0.248
REMARK SMILES O=C([O-])[C@H](O)Cc1ccc(O)c(O)c1
REMARK SMILES IDX 6 1 7 2 8 3 9 4 10 5 14 6 12 7 11 8 13 10 4 12 2 13 1 14
REMARK SMILES IDX 3 15 5 16
REMARK H PARENT 11 9 13 11 5 17
ROOT
ATOM      1  C   UNL     1      32.506  35.513 -48.522  1.00  0.00     0.073 C 
ENDROOT
BRANCH   1   2
ATOM      2  C   UNL     1      31.213  36.125 -48.021  1.00  0.00    -0.041 A 
ATOM      3  C   UNL     1      30.637  37.228 -48.674  1.00  0.00     0.008 A 
ATOM      4  C   UNL     1      29.441  37.784 -48.211  1.00  0.00     0.050 A 
ATOM      5  C   UNL     1      28.819  37.226 -47.105  1.00  0.00     0.157 A 
ATOM      6  C   UNL     1      30.567  35.576 -46.904  1.00  0.00     0.054 A 
ATOM      7  C   UNL     1      29.373  36.126 -46.458  1.00  0.00     0.157 A 
BRANCH   5   8
ATOM      8  O   UNL     1      27.645  37.759 -46.649  1.00  0.00    -0.504 OA
ATOM      9  H   UNL     1      27.842  37.976 -45.716  1.00  0.00     0.293 HD
ENDBRANCH   5   8
BRANCH   7  10
ATOM     10  O   UNL     1      28.705  35.600 -45.384  1.00  0.00    -0.504 OA
ATOM     11  H   UNL     1      27.856  36.077 -45.334  1.00  0.00     0.293 HD
ENDBRANCH   7  10
ENDBRANCH   1   2
BRANCH   1  12
ATOM     12  C   UNL     1      32.910  34.257 -47.751  1.00  0.00     0.164 C 
BRANCH  12  13
ATOM     13  C   UNL     1      34.451  34.213 -47.506  1.00  0.00     0.070 C 
ATOM     14  O   UNL     1      34.774  33.506 -46.499  1.00  0.00    -0.547 OA
ATOM     15  O   UNL     1      35.178  34.869 -48.301  1.00  0.00    -0.547 OA
ENDBRANCH  12  13
BRANCH  12  16
ATOM     16  O   UNL     1      32.525  33.084 -48.525  1.00  0.00    -0.387 OA
ATOM     17  H   UNL     1      32.554  32.374 -47.833  1.00  0.00     0.211 HD
ENDBRANCH  12  16
ENDBRANCH   1  12
TORSDOF 6
ENDMDL
MODEL 4
REMARK VINA RESULT:    -4.825      2.092      3.166
REMARK INTER + INTRA:          -6.343
REMARK INTER:                  -6.151
REMARK INTRA:                  -0.192
REMARK UNBOUND:                -0.248
REMARK SMILES O=C([O-])[C@H](O)Cc1ccc(O)c(O)c1
REMARK SMILES IDX 6 1 7 2 8 3 9 4 10 5 14 6 12 7 11 8 13 10 4 12 2 13 1 14
REMARK SMILES IDX 3 15 5 16
REMARK H PARENT 11 9 13 11 5 17
ROOT
ATOM      1  C   UNL     1      32.455  35.520 -48.445  1.00  0.00     0.073 C 
ENDROOT
BRANCH   1   2
ATOM      2  C   UNL     1      31.164  36.048 -47.849  1.00  0.00    -0.041 A 
ATOM      3  C   UNL     1      30.508  35.351 -46.820  1.00  0.00     0.008 A 
ATOM      4  C   UNL     1      29.322  35.846 -46.270  1.00  0.00     0.050 A 
ATOM      5  C   UNL     1      28.804  37.041 -46.743  1.00  0.00     0.157 A 
ATOM      6  C   UNL     1      30.624  37.256 -48.312  1.00  0.00     0.054 A 
ATOM      7  C   UNL     1      29.452  37.747 -47.752  1.00  0.00     0.157 A 
BRANCH   5   8
ATOM      8  O   UNL     1      27.648  37.537 -46.206  1.00  0.00    -0.504 OA
ATOM      9  H   UNL     1      26.964  37.258 -46.846  1.00  0.00     0.293 HD
ENDBRANCH   5   8
BRANCH   7  10
ATOM     10  O   UNL     1      28.909  38.935 -48.165  1.00  0.00    -0.504 OA
ATOM     11  H   UNL     1      29.416  39.204 -48.954  1.00  0.00     0.293 HD
ENDBRANCH   7  10
ENDBRANCH   1   2
BRANCH   1  12
ATOM     12  C   UNL     1      32.954  34.250 -47.756  1.00  0.00     0.164 C 
BRANCH  12  13
ATOM     13  C   UNL     1      34.502  34.282 -47.562  1.00  0.00     0.070 C 
ATOM     14  O   UNL     1      34.894  33.579 -46.577  1.00  0.00    -0.547 OA
ATOM     15  O   UNL     1      35.168  34.985 -48.370  1.00  0.00    -0.547 OA
ENDBRANCH  12  13
BRANCH  12  16
ATOM     16  O   UNL     1      32.608  33.099 -48.580  1.00  0.00    -0.387 OA
ATOM     17  H   UNL     1      32.237  32.478 -47.903  1.00  0.00     0.211 HD
ENDBRANCH  12  16
ENDBRANCH   1  12
TORSDOF 6
ENDMDL
MODEL 5
REMARK VINA RESULT:    -4.667      2.057      4.961
REMARK INTER + INTRA:          -6.142
REMARK INTER:                  -5.949
REMARK INTRA:                  -0.193
REMARK UNBOUND:                -0.248
REMARK SMILES O=C([O-])[C@H](O)Cc1ccc(O)c(O)c1
REMARK SMILES IDX 6 1 7 2 8 3 9 4 10 5 14 6 12 7 11 8 13 10 4 12 2 13 1 14
REMARK SMILES IDX 3 15 5 16
REMARK H PARENT 11 9 13 11 5 17
ROOT
ATOM      1  C   UNL     1      28.512  35.675 -47.651  1.00  0.00     0.073 C 
ENDROOT
BRANCH   1   2
ATOM      2  C   UNL     1      29.980  35.317 -47.769  1.00  0.00    -0.041 A 
ATOM      3  C   UNL     1      30.893  36.207 -48.362  1.00  0.00     0.008 A 
ATOM      4  C   UNL     1      32.246  35.875 -48.462  1.00  0.00     0.050 A 
ATOM      5  C   UNL     1      32.685  34.660 -47.958  1.00  0.00     0.157 A 
ATOM      6  C   UNL     1      30.444  34.094 -47.265  1.00  0.00     0.054 A 
ATOM      7  C   UNL     1      31.792  33.777 -47.357  1.00  0.00     0.157 A 
BRANCH   5   8
ATOM      8  O   UNL     1      34.009  34.329 -48.045  1.00  0.00    -0.504 OA
ATOM      9  H   UNL     1      34.151  34.217 -49.006  1.00  0.00     0.293 HD
ENDBRANCH   5   8
BRANCH   7  10
ATOM     10  O   UNL     1      32.282  32.600 -46.856  1.00  0.00    -0.504 OA
ATOM     11  H   UNL     1      31.901  31.892 -47.407  1.00  0.00     0.293 HD
ENDBRANCH   7  10
ENDBRANCH   1   2
BRANCH   1  12
ATOM     12  C   UNL     1      28.200  36.515 -46.413  1.00  0.00     0.164 C 
BRANCH  12  13
ATOM     13  C   UNL     1      26.949  35.967 -45.657  1.00  0.00     0.070 C 
ATOM     14  O   UNL     1      27.251  35.199 -44.689  1.00  0.00    -0.547 OA
ATOM     15  O   UNL     1      25.818  36.326 -46.081  1.00  0.00    -0.547 OA
ENDBRANCH  12  13
BRANCH  12  16
ATOM     16  O   UNL     1      27.933  37.886 -46.827  1.00  0.00    -0.387 OA
ATOM     17  H   UNL     1      27.436  38.235 -46.044  1.00  0.00     0.211 HD
ENDBRANCH  12  16
ENDBRANCH   1  12
TORSDOF 6
ENDMDL
MODEL 6
REMARK VINA RESULT:    -4.638      2.408      6.574
REMARK INTER + INTRA:          -6.106
REMARK INTER:                  -5.915
REMARK INTRA:                  -0.191
REMARK UNBOUND:                -0.248
REMARK SMILES O=C([O-])[C@H](O)Cc1ccc(O)c(O)c1
REMARK SMILES IDX 6 1 7 2 8 3 9 4 10 5 14 6 12 7 11 8 13 10 4 12 2 13 1 14
REMARK SMILES IDX 3 15 5 16
REMARK H PARENT 11 9 13 11 5 17
ROOT
ATOM      1  C   UNL     1      30.926  38.969 -49.254  1.00  0.00     0.073 C 
ENDROOT
BRANCH   1   2
ATOM      2  C   UNL     1      30.947  37.668 -48.477  1.00  0.00    -0.041 A 
ATOM      3  C   UNL     1      31.859  36.648 -48.805  1.00  0.00     0.008 A 
ATOM      4  C   UNL     1      31.879  35.453 -48.081  1.00  0.00     0.050 A 
ATOM      5  C   UNL     1      30.997  35.286 -47.025  1.00  0.00     0.157 A 
ATOM      6  C   UNL     1      30.064  37.479 -47.405  1.00  0.00     0.054 A 
ATOM      7  C   UNL     1      30.099  36.294 -46.683  1.00  0.00     0.157 A 
BRANCH   5   8
ATOM      8  O   UNL     1      31.014  34.123 -46.306  1.00  0.00    -0.504 OA
ATOM      9  H   UNL     1      31.703  34.284 -45.631  1.00  0.00     0.293 HD
ENDBRANCH   5   8
BRANCH   7  10
ATOM     10  O   UNL     1      29.266  36.086 -45.616  1.00  0.00    -0.504 OA
ATOM     11  H   UNL     1      29.623  36.623 -44.885  1.00  0.00     0.293 HD
ENDBRANCH   7  10
ENDBRANCH   1   2
BRANCH   1  12
ATOM     12  C   UNL     1      30.764  40.196 -48.357  1.00  0.00     0.164 C 
BRANCH  12  13
ATOM     13  C   UNL     1      29.783  41.234 -48.988  1.00  0.00     0.070 C 
ATOM     14  O   UNL     1      30.161  41.642 -50.133  1.00  0.00    -0.547 OA
ATOM     15  O   UNL     1      28.767  41.549 -48.313  1.00  0.00    -0.547 OA
ENDBRANCH  12  13
BRANCH  12  16
ATOM     16  O   UNL     1      32.065  40.828 -48.182  1.00  0.00    -0.387 OA
ATOM     17  H   UNL     1      31.837  41.785 -48.304  1.00  0.00     0.211 HD
ENDBRANCH  12  16
ENDBRANCH   1  12
TORSDOF 6
ENDMDL
MODEL 7
REMARK VINA RESULT:    -4.628      1.959      2.542
REMARK INTER + INTRA:          -6.093
REMARK INTER:                  -5.857
REMARK INTRA:                  -0.236
REMARK UNBOUND:                -0.248
REMARK SMILES O=C([O-])[C@H](O)Cc1ccc(O)c(O)c1
REMARK SMILES IDX 6 1 7 2 8 3 9 4 10 5 14 6 12 7 11 8 13 10 4 12 2 13 1 14
REMARK SMILES IDX 3 15 5 16
REMARK H PARENT 11 9 13 11 5 17
ROOT
ATOM      1  C   UNL     1      30.901  33.362 -48.091  1.00  0.00     0.073 C 
ENDROOT
BRANCH   1   2
ATOM      2  C   UNL     1      29.818  34.100 -47.329  1.00  0.00    -0.041 A 
ATOM      3  C   UNL     1      30.149  35.065 -46.363  1.00  0.00     0.008 A 
ATOM      4  C   UNL     1      29.146  35.747 -45.668  1.00  0.00     0.050 A 
ATOM      5  C   UNL     1      27.817  35.471 -45.951  1.00  0.00     0.157 A 
ATOM      6  C   UNL     1      28.468  33.836 -47.601  1.00  0.00     0.054 A 
ATOM      7  C   UNL     1      27.478  34.527 -46.915  1.00  0.00     0.157 A 
BRANCH   5   8
ATOM      8  O   UNL     1      26.830  36.139 -45.281  1.00  0.00    -0.504 OA
ATOM      9  H   UNL     1      27.285  36.474 -44.482  1.00  0.00     0.293 HD
ENDBRANCH   5   8
BRANCH   7  10
ATOM     10  O   UNL     1      26.151  34.309 -47.172  1.00  0.00    -0.504 OA
ATOM     11  H   UNL     1      25.918  33.482 -46.710  1.00  0.00     0.293 HD
ENDBRANCH   7  10
ENDBRANCH   1   2
BRANCH   1  12
ATOM     12  C   UNL     1      30.752  31.842 -48.018  1.00  0.00     0.164 C 
BRANCH  12  13
ATOM     13  C   UNL     1      31.549  31.252 -46.813  1.00  0.00     0.070 C 
ATOM     14  O   UNL     1      32.418  32.058 -46.350  1.00  0.00    -0.547 OA
ATOM     15  O   UNL     1      31.260  30.080 -46.450  1.00  0.00    -0.547 OA
ENDBRANCH  12  13
BRANCH  12  16
ATOM     16  O   UNL     1      31.264  31.257 -49.250  1.00  0.00    -0.387 OA
ATOM     17  H   UNL     1      30.828  31.827 -49.933  1.00  0.00     0.211 HD
ENDBRANCH  12  16
ENDBRANCH   1  12
TORSDOF 6
ENDMDL
MODEL 8
REMARK VINA RESULT:    -4.610      3.112      5.206
REMARK INTER + INTRA:          -6.071
REMARK INTER:                  -5.868
REMARK INTRA:                  -0.203
REMARK UNBOUND:                -0.248
REMARK SMILES O=C([O-])[C@H](O)Cc1ccc(O)c(O)c1
REMARK SMILES IDX 6 1 7 2 8 3 9 4 10 5 14 6 12 7 11 8 13 10 4 12 2 13 1 14
REMARK SMILES IDX 3 15 5 16
REMARK H PARENT 11 9 13 11 5 17
ROOT
ATOM      1  C   UNL     1      30.178  37.267 -48.292  1.00  0.00     0.073 C 
ENDROOT
BRANCH   1   2
ATOM      2  C   UNL     1      30.532  38.645 -48.814  1.00  0.00    -0.041 A 
ATOM      3  C   UNL     1      31.281  39.541 -48.032  1.00  0.00     0.008 A 
ATOM      4  C   UNL     1      31.610  40.809 -48.521  1.00  0.00     0.050 A 
ATOM      5  C   UNL     1      31.199  41.171 -49.795  1.00  0.00     0.157 A 
ATOM      6  C   UNL     1      30.127  39.031 -50.100  1.00  0.00     0.054 A 
ATOM      7  C   UNL     1      30.468  40.287 -50.583  1.00  0.00     0.157 A 
BRANCH   5   8
ATOM      8  O   UNL     1      31.522  42.405 -50.285  1.00  0.00    -0.504 OA
ATOM      9  H   UNL     1      31.723  42.230 -51.226  1.00  0.00     0.293 HD
ENDBRANCH   5   8
BRANCH   7  10
ATOM     10  O   UNL     1      30.108  40.687 -51.843  1.00  0.00    -0.504 OA
ATOM     11  H   UNL     1      29.134  40.740 -51.841  1.00  0.00     0.293 HD
ENDBRANCH   7  10
ENDBRANCH   1   2
BRANCH   1  12
ATOM     12  C   UNL     1      29.781  37.272 -46.816  1.00  0.00     0.164 C 
BRANCH  12  13
ATOM     13  C   UNL     1      30.058  35.888 -46.150  1.00  0.00     0.070 C 
ATOM     14  O   UNL     1      31.104  35.321 -46.600  1.00  0.00    -0.547 OA
ATOM     15  O   UNL     1      29.237  35.495 -45.277  1.00  0.00    -0.547 OA
ENDBRANCH  12  13
BRANCH  12  16
ATOM     16  O   UNL     1      28.358  37.567 -46.710  1.00  0.00    -0.387 OA
ATOM     17  H   UNL     1      28.138  37.157 -45.835  1.00  0.00     0.211 HD
ENDBRANCH  12  16
ENDBRANCH   1  12
TORSDOF 6
ENDMDL
MODEL 9
REMARK VINA RESULT:    -4.590      2.365      3.225
REMARK INTER + INTRA:          -6.046
REMARK INTER:                  -5.805
REMARK INTRA:                  -0.240
REMARK UNBOUND:                -0.248
REMARK SMILES O=C([O-])[C@H](O)Cc1ccc(O)c(O)c1
REMARK SMILES IDX 6 1 7 2 8 3 9 4 10 5 14 6 12 7 11 8 13 10 4 12 2 13 1 14
REMARK SMILES IDX 3 15 5 16
REMARK H PARENT 11 9 13 11 5 17
ROOT
ATOM      1  C   UNL     1      32.334  34.613 -49.015  1.00  0.00     0.073 C 
ENDROOT
BRANCH   1   2
ATOM      2  C   UNL     1      31.671  35.933 -49.357  1.00  0.00    -0.041 A 
ATOM      3  C   UNL     1      31.302  36.232 -50.680  1.00  0.00     0.008 A 
ATOM      4  C   UNL     1      30.685  37.448 -50.988  1.00  0.00     0.050 A 
ATOM      5  C   UNL     1      30.426  38.353 -49.970  1.00  0.00     0.157 A 
ATOM      6  C   UNL     1      31.400  36.862 -48.342  1.00  0.00     0.054 A 
ATOM      7  C   UNL     1      30.775  38.061 -48.655  1.00  0.00     0.157 A 
BRANCH   5   8
ATOM      8  O   UNL     1      29.816  39.542 -50.261  1.00  0.00    -0.504 OA
ATOM      9  H   UNL     1      30.363  39.906 -50.985  1.00  0.00     0.293 HD
ENDBRANCH   5   8
BRANCH   7  10
ATOM     10  O   UNL     1      30.475  38.981 -47.685  1.00  0.00    -0.504 OA
ATOM     11  H   UNL     1      31.219  39.612 -47.672  1.00  0.00     0.293 HD
ENDBRANCH   7  10
ENDBRANCH   1   2
BRANCH   1  12
ATOM     12  C   UNL     1      32.836  34.553 -47.573  1.00  0.00     0.164 C 
BRANCH  12  13
ATOM     13  C   UNL     1      34.374  34.299 -47.517  1.00  0.00     0.070 C 
ATOM     14  O   UNL     1      34.710  33.484 -46.600  1.00  0.00    -0.547 OA
ATOM     15  O   UNL     1      35.090  34.915 -48.353  1.00  0.00    -0.547 OA
ENDBRANCH  12  13
BRANCH  12  16
ATOM     16  O   UNL     1      32.156  33.466 -46.881  1.00  0.00    -0.387 OA
ATOM     17  H   UNL     1      32.549  33.534 -45.974  1.00  0.00     0.211 HD
ENDBRANCH  12  16
ENDBRANCH   1  12
TORSDOF 6
ENDMDL
