MODEL 1
REMARK VINA RESULT:    -6.358      0.000      0.000
REMARK INTER + INTRA:         -12.500
REMARK INTER:                 -10.632
REMARK INTRA:                  -1.868
REMARK UNBOUND:                -1.868
REMARK SMILES C[C@@H]1O[C@@H](OC[C@H]2O[C@@H](OCC(O)c3ccc(O)c(O)c3)[C@H](O)[C@@H](O)[C@@H]2O)[C@H](O)[C@H](O)[C@H]1O
REMARK SMILES IDX 7 1 26 2 24 3 22 4 9 5 8 6 6 7 5 8 4 9 2 10 32 11 3 12 30 13
REMARK SMILES IDX 28 14 1 15 33 16 31 18 29 20 27 22 25 24 10 26 11 27 12 28
REMARK SMILES IDX 14 29 21 30 15 31 19 32 16 33 17 34 20 35 18 37 13 39 23 41
REMARK H PARENT 33 17 31 19 29 21 27 23 25 25 20 36 18 38 13 40 23 42
ROOT
ATOM      1  C   UNL     1      29.821  32.863 -48.805  1.00  0.00     0.178 C 
ATOM      2  C   UNL     1      30.223  32.150 -47.505  1.00  0.00     0.177 C 
ATOM      3  C   UNL     1      31.737  32.229 -47.317  1.00  0.00     0.179 C 
ATOM      4  C   UNL     1      32.208  33.675 -47.400  1.00  0.00     0.202 C 
ATOM      5  C   UNL     1      31.717  34.305 -48.718  1.00  0.00     0.282 C 
ATOM      6  O   UNL     1      30.292  34.228 -48.798  1.00  0.00    -0.341 OA
ENDROOT
BRANCH   1   7
ATOM      7  C   UNL     1      28.293  32.862 -48.969  1.00  0.00     0.198 C 
BRANCH   7   8
ATOM      8  O   UNL     1      27.839  34.214 -49.110  1.00  0.00    -0.347 OA
BRANCH   8   9
ATOM      9  C   UNL     1      26.551  34.435 -48.530  1.00  0.00     0.281 C 
ATOM     10  C   UNL     1      26.806  36.819 -48.537  1.00  0.00     0.150 C 
ATOM     11  C   UNL     1      26.819  36.891 -47.001  1.00  0.00     0.174 C 
ATOM     12  O   UNL     1      26.043  35.699 -48.988  1.00  0.00    -0.344 OA
ATOM     13  C   UNL     1      27.359  35.570 -46.434  1.00  0.00     0.179 C 
ATOM     14  C   UNL     1      26.582  34.376 -46.988  1.00  0.00     0.202 C 
ATOM     15  C   UNL     1      26.184  38.066 -49.156  1.00  0.00     0.041 C 
BRANCH  11  16
ATOM     16  O   UNL     1      27.631  37.982 -46.522  1.00  0.00    -0.388 OA
ATOM     17  H   UNL     1      27.020  38.738 -46.419  1.00  0.00     0.211 HD
ENDBRANCH  11  16
BRANCH  13  18
ATOM     18  O   UNL     1      27.238  35.574 -45.000  1.00  0.00    -0.387 OA
ATOM     19  H   UNL     1      28.152  35.501 -44.658  1.00  0.00     0.211 HD
ENDBRANCH  13  18
BRANCH  14  20
ATOM     20  O   UNL     1      25.253  34.386 -46.437  1.00  0.00    -0.385 OA
ATOM     21  H   UNL     1      24.850  33.549 -46.750  1.00  0.00     0.211 HD
ENDBRANCH  14  20
ENDBRANCH   8   9
ENDBRANCH   7   8
ENDBRANCH   1   7
BRANCH   2  22
ATOM     22  O   UNL     1      29.825  30.778 -47.521  1.00  0.00    -0.387 OA
ATOM     23  H   UNL     1      30.586  30.294 -47.903  1.00  0.00     0.211 HD
ENDBRANCH   2  22
BRANCH   3  24
ATOM     24  O   UNL     1      32.080  31.662 -46.043  1.00  0.00    -0.387 OA
ATOM     25  H   UNL     1      32.371  30.748 -46.241  1.00  0.00     0.211 HD
ENDBRANCH   3  24
BRANCH   5  26
ATOM     26  O   UNL     1      32.143  35.670 -48.682  1.00  0.00    -0.347 OA
BRANCH  26  27
ATOM     27  C   UNL     1      31.509  36.525 -49.642  1.00  0.00     0.200 C 
BRANCH  27  28
ATOM     28  C   UNL     1      30.514  37.560 -49.075  1.00  0.00     0.170 C 
BRANCH  28  29
ATOM     29  C   UNL     1      30.807  39.034 -49.292  1.00  0.00    -0.013 A 
ATOM     30  C   UNL     1      30.236  39.669 -50.413  1.00  0.00     0.056 A 
ATOM     31  C   UNL     1      31.644  39.792 -48.455  1.00  0.00     0.010 A 
ATOM     32  C   UNL     1      30.470  41.018 -50.656  1.00  0.00     0.157 A 
ATOM     33  C   UNL     1      31.893  41.144 -48.717  1.00  0.00     0.050 A 
ATOM     34  C   UNL     1      31.302  41.746 -49.816  1.00  0.00     0.157 A 
BRANCH  32  35
ATOM     35  O   UNL     1      29.875  41.673 -51.699  1.00  0.00    -0.504 OA
ATOM     36  H   UNL     1      30.576  42.178 -52.172  1.00  0.00     0.293 HD
ENDBRANCH  32  35
BRANCH  34  37
ATOM     37  O   UNL     1      31.539  43.068 -50.062  1.00  0.00    -0.504 OA
ATOM     38  H   UNL     1      30.898  43.540 -49.494  1.00  0.00     0.293 HD
ENDBRANCH  34  37
ENDBRANCH  28  29
BRANCH  28  39
ATOM     39  O   UNL     1      30.300  37.311 -47.683  1.00  0.00    -0.386 OA
ATOM     40  H   UNL     1      30.447  36.349 -47.551  1.00  0.00     0.211 HD
ENDBRANCH  28  39
ENDBRANCH  27  28
ENDBRANCH  26  27
ENDBRANCH   5  26
BRANCH   4  41
ATOM     41  O   UNL     1      33.641  33.702 -47.304  1.00  0.00    -0.385 OA
ATOM     42  H   UNL     1      33.917  34.487 -47.818  1.00  0.00     0.211 HD
ENDBRANCH   4  41
TORSDOF 16
ENDMDL
MODEL 2
REMARK VINA RESULT:    -6.083      1.845      7.108
REMARK INTER + INTRA:         -12.040
REMARK INTER:                 -10.487
REMARK INTRA:                  -1.553
REMARK UNBOUND:                -1.868
REMARK SMILES C[C@@H]1O[C@@H](OC[C@H]2O[C@@H](OCC(O)c3ccc(O)c(O)c3)[C@H](O)[C@@H](O)[C@@H]2O)[C@H](O)[C@H](O)[C@H]1O
REMARK SMILES IDX 7 1 26 2 24 3 22 4 9 5 8 6 6 7 5 8 4 9 2 10 32 11 3 12 30 13
REMARK SMILES IDX 28 14 1 15 33 16 31 18 29 20 27 22 25 24 10 26 11 27 12 28
REMARK SMILES IDX 14 29 21 30 15 31 19 32 16 33 17 34 20 35 18 37 13 39 23 41
REMARK H PARENT 33 17 31 19 29 21 27 23 25 25 20 36 18 38 13 40 23 42
ROOT
ATOM      1  C   UNL     1      27.306  36.257 -48.899  1.00  0.00     0.178 C 
ATOM      2  C   UNL     1      26.383  37.111 -48.018  1.00  0.00     0.177 C 
ATOM      3  C   UNL     1      26.127  36.398 -46.691  1.00  0.00     0.179 C 
ATOM      4  C   UNL     1      27.446  36.026 -46.026  1.00  0.00     0.202 C 
ATOM      5  C   UNL     1      28.309  35.210 -47.008  1.00  0.00     0.282 C 
ATOM      6  O   UNL     1      28.536  35.961 -48.202  1.00  0.00    -0.341 OA
ENDROOT
BRANCH   1   7
ATOM      7  C   UNL     1      27.638  36.996 -50.206  1.00  0.00     0.198 C 
BRANCH   7   8
ATOM      8  O   UNL     1      27.640  38.407 -49.956  1.00  0.00    -0.347 OA
BRANCH   8   9
ATOM      9  C   UNL     1      28.592  39.115 -50.754  1.00  0.00     0.281 C 
ATOM     10  C   UNL     1      30.311  38.954 -49.091  1.00  0.00     0.150 C 
ATOM     11  C   UNL     1      30.318  40.473 -48.852  1.00  0.00     0.174 C 
ATOM     12  O   UNL     1      29.913  38.650 -50.429  1.00  0.00    -0.344 OA
ATOM     13  C   UNL     1      28.930  41.045 -49.175  1.00  0.00     0.179 C 
ATOM     14  C   UNL     1      28.484  40.644 -50.582  1.00  0.00     0.202 C 
ATOM     15  C   UNL     1      31.693  38.343 -48.883  1.00  0.00     0.041 C 
BRANCH  11  16
ATOM     16  O   UNL     1      30.663  40.800 -47.491  1.00  0.00    -0.388 OA
ATOM     17  H   UNL     1      30.640  41.776 -47.442  1.00  0.00     0.211 HD
ENDBRANCH  11  16
BRANCH  13  18
ATOM     18  O   UNL     1      28.968  42.481 -49.095  1.00  0.00    -0.387 OA
ATOM     19  H   UNL     1      29.569  42.769 -49.812  1.00  0.00     0.211 HD
ENDBRANCH  13  18
BRANCH  14  20
ATOM     20  O   UNL     1      29.296  41.338 -51.545  1.00  0.00    -0.385 OA
ATOM     21  H   UNL     1      28.837  42.192 -51.686  1.00  0.00     0.211 HD
ENDBRANCH  14  20
ENDBRANCH   8   9
ENDBRANCH   7   8
ENDBRANCH   1   7
BRANCH   2  22
ATOM     22  O   UNL     1      25.133  37.359 -48.664  1.00  0.00    -0.387 OA
ATOM     23  H   UNL     1      24.653  37.973 -48.070  1.00  0.00     0.211 HD
ENDBRANCH   2  22
BRANCH   3  24
ATOM     24  O   UNL     1      25.360  37.261 -45.837  1.00  0.00    -0.387 OA
ATOM     25  H   UNL     1      25.661  38.167 -46.054  1.00  0.00     0.211 HD
ENDBRANCH   3  24
BRANCH   5  26
ATOM     26  O   UNL     1      29.545  34.963 -46.330  1.00  0.00    -0.347 OA
BRANCH  26  27
ATOM     27  C   UNL     1      30.677  35.657 -46.868  1.00  0.00     0.200 C 
BRANCH  27  28
ATOM     28  C   UNL     1      31.652  34.810 -47.715  1.00  0.00     0.170 C 
BRANCH  28  29
ATOM     29  C   UNL     1      31.253  33.388 -48.065  1.00  0.00    -0.013 A 
ATOM     30  C   UNL     1      31.472  32.379 -47.107  1.00  0.00     0.056 A 
ATOM     31  C   UNL     1      30.709  33.017 -49.306  1.00  0.00     0.010 A 
ATOM     32  C   UNL     1      31.121  31.061 -47.376  1.00  0.00     0.157 A 
ATOM     33  C   UNL     1      30.378  31.685 -49.580  1.00  0.00     0.050 A 
ATOM     34  C   UNL     1      30.586  30.717 -48.610  1.00  0.00     0.157 A 
BRANCH  32  35
ATOM     35  O   UNL     1      31.263  30.075 -46.438  1.00  0.00    -0.504 OA
ATOM     36  H   UNL     1      31.847  29.381 -46.822  1.00  0.00     0.293 HD
ENDBRANCH  32  35
BRANCH  34  37
ATOM     37  O   UNL     1      30.253  29.421 -48.877  1.00  0.00    -0.504 OA
ATOM     38  H   UNL     1      30.412  28.950 -48.034  1.00  0.00     0.293 HD
ENDBRANCH  34  37
ENDBRANCH  28  29
BRANCH  28  39
ATOM     39  O   UNL     1      32.946  34.812 -47.105  1.00  0.00    -0.386 OA
ATOM     40  H   UNL     1      33.569  34.467 -47.781  1.00  0.00     0.211 HD
ENDBRANCH  28  39
ENDBRANCH  27  28
ENDBRANCH  26  27
ENDBRANCH   5  26
BRANCH   4  41
ATOM     41  O   UNL     1      27.168  35.285 -44.827  1.00  0.00    -0.385 OA
ATOM     42  H   UNL     1      27.821  34.557 -44.818  1.00  0.00     0.211 HD
ENDBRANCH   4  41
TORSDOF 16
ENDMDL
MODEL 3
REMARK VINA RESULT:    -6.048      1.855      6.785
REMARK INTER + INTRA:         -11.983
REMARK INTER:                 -10.611
REMARK INTRA:                  -1.371
REMARK UNBOUND:                -1.868
REMARK SMILES C[C@@H]1O[C@@H](OC[C@H]2O[C@@H](OCC(O)c3ccc(O)c(O)c3)[C@H](O)[C@@H](O)[C@@H]2O)[C@H](O)[C@H](O)[C@H]1O
REMARK SMILES IDX 7 1 26 2 24 3 22 4 9 5 8 6 6 7 5 8 4 9 2 10 32 11 3 12 30 13
REMARK SMILES IDX 28 14 1 15 33 16 31 18 29 20 27 22 25 24 10 26 11 27 12 28
REMARK SMILES IDX 14 29 21 30 15 31 19 32 16 33 17 34 20 35 18 37 13 39 23 41
REMARK H PARENT 33 17 31 19 29 21 27 23 25 25 20 36 18 38 13 40 23 42
ROOT
ATOM      1  C   UNL     1      27.667  36.716 -48.964  1.00  0.00     0.178 C 
ATOM      2  C   UNL     1      26.974  36.775 -47.594  1.00  0.00     0.177 C 
ATOM      3  C   UNL     1      27.693  35.854 -46.610  1.00  0.00     0.179 C 
ATOM      4  C   UNL     1      29.180  36.184 -46.566  1.00  0.00     0.202 C 
ATOM      5  C   UNL     1      29.764  36.138 -47.990  1.00  0.00     0.282 C 
ATOM      6  O   UNL     1      29.066  37.053 -48.837  1.00  0.00    -0.341 OA
ENDROOT
BRANCH   1   7
ATOM      7  C   UNL     1      27.004  37.696 -49.945  1.00  0.00     0.198 C 
BRANCH   7   8
ATOM      8  O   UNL     1      27.962  38.689 -50.331  1.00  0.00    -0.347 OA
BRANCH   8   9
ATOM      9  C   UNL     1      27.663  39.988 -49.812  1.00  0.00     0.281 C 
ATOM     10  C   UNL     1      29.359  41.055 -51.127  1.00  0.00     0.150 C 
ATOM     11  C   UNL     1      30.181  41.434 -49.884  1.00  0.00     0.174 C 
ATOM     12  O   UNL     1      27.968  40.973 -50.813  1.00  0.00    -0.344 OA
ATOM     13  C   UNL     1      29.911  40.418 -48.766  1.00  0.00     0.179 C 
ATOM     14  C   UNL     1      28.412  40.283 -48.496  1.00  0.00     0.202 C 
ATOM     15  C   UNL     1      29.509  42.087 -52.240  1.00  0.00     0.041 C 
BRANCH  11  16
ATOM     16  O   UNL     1      31.595  41.467 -50.166  1.00  0.00    -0.388 OA
ATOM     17  H   UNL     1      31.838  42.414 -50.177  1.00  0.00     0.211 HD
ENDBRANCH  11  16
BRANCH  13  18
ATOM     18  O   UNL     1      30.561  40.846 -47.555  1.00  0.00    -0.387 OA
ATOM     19  H   UNL     1      30.737  41.801 -47.674  1.00  0.00     0.211 HD
ENDBRANCH  13  18
BRANCH  14  20
ATOM     20  O   UNL     1      27.937  41.495 -47.884  1.00  0.00    -0.385 OA
ATOM     21  H   UNL     1      27.490  41.198 -47.063  1.00  0.00     0.211 HD
ENDBRANCH  14  20
ENDBRANCH   8   9
ENDBRANCH   7   8
ENDBRANCH   1   7
BRANCH   2  22
ATOM     22  O   UNL     1      25.605  36.378 -47.689  1.00  0.00    -0.387 OA
ATOM     23  H   UNL     1      25.097  37.107 -47.276  1.00  0.00     0.211 HD
ENDBRANCH   2  22
BRANCH   3  24
ATOM     24  O   UNL     1      27.106  36.010 -45.309  1.00  0.00    -0.387 OA
ATOM     25  H   UNL     1      27.753  36.539 -44.799  1.00  0.00     0.211 HD
ENDBRANCH   3  24
BRANCH   5  26
ATOM     26  O   UNL     1      31.137  36.522 -47.864  1.00  0.00    -0.347 OA
BRANCH  26  27
ATOM     27  C   UNL     1      32.021  35.919 -48.816  1.00  0.00     0.200 C 
BRANCH  27  28
ATOM     28  C   UNL     1      32.733  34.628 -48.356  1.00  0.00     0.170 C 
BRANCH  28  29
ATOM     29  C   UNL     1      31.950  33.327 -48.377  1.00  0.00    -0.013 A 
ATOM     30  C   UNL     1      32.035  32.480 -47.255  1.00  0.00     0.056 A 
ATOM     31  C   UNL     1      31.173  32.906 -49.469  1.00  0.00     0.010 A 
ATOM     32  C   UNL     1      31.335  31.279 -47.222  1.00  0.00     0.157 A 
ATOM     33  C   UNL     1      30.488  31.686 -49.439  1.00  0.00     0.050 A 
ATOM     34  C   UNL     1      30.574  30.882 -48.313  1.00  0.00     0.157 A 
BRANCH  32  35
ATOM     35  O   UNL     1      31.349  30.470 -46.118  1.00  0.00    -0.504 OA
ATOM     36  H   UNL     1      31.919  30.901 -45.440  1.00  0.00     0.293 HD
ENDBRANCH  32  35
BRANCH  34  37
ATOM     37  O   UNL     1      29.897  29.698 -48.283  1.00  0.00    -0.504 OA
ATOM     38  H   UNL     1      30.574  29.036 -48.039  1.00  0.00     0.293 HD
ENDBRANCH  34  37
ENDBRANCH  28  29
BRANCH  28  39
ATOM     39  O   UNL     1      33.303  34.827 -47.059  1.00  0.00    -0.386 OA
ATOM     40  H   UNL     1      33.307  35.797 -46.908  1.00  0.00     0.211 HD
ENDBRANCH  28  39
ENDBRANCH  27  28
ENDBRANCH  26  27
ENDBRANCH   5  26
BRANCH   4  41
ATOM     41  O   UNL     1      29.837  35.246 -45.696  1.00  0.00    -0.385 OA
ATOM     42  H   UNL     1      30.007  35.740 -44.869  1.00  0.00     0.211 HD
ENDBRANCH   4  41
TORSDOF 16
ENDMDL
MODEL 4
REMARK VINA RESULT:    -6.031      2.688      8.897
REMARK INTER + INTRA:         -11.954
REMARK INTER:                 -10.557
REMARK INTRA:                  -1.397
REMARK UNBOUND:                -1.868
REMARK SMILES C[C@@H]1O[C@@H](OC[C@H]2O[C@@H](OCC(O)c3ccc(O)c(O)c3)[C@H](O)[C@@H](O)[C@@H]2O)[C@H](O)[C@H](O)[C@H]1O
REMARK SMILES IDX 7 1 26 2 24 3 22 4 9 5 8 6 6 7 5 8 4 9 2 10 32 11 3 12 30 13
REMARK SMILES IDX 28 14 1 15 33 16 31 18 29 20 27 22 25 24 10 26 11 27 12 28
REMARK SMILES IDX 14 29 21 30 15 31 19 32 16 33 17 34 20 35 18 37 13 39 23 41
REMARK H PARENT 33 17 31 19 29 21 27 23 25 25 20 36 18 38 13 40 23 42
ROOT
ATOM      1  C   UNL     1      29.743  39.084 -51.079  1.00  0.00     0.178 C 
ATOM      2  C   UNL     1      28.900  39.918 -50.103  1.00  0.00     0.177 C 
ATOM      3  C   UNL     1      28.502  39.063 -48.901  1.00  0.00     0.179 C 
ATOM      4  C   UNL     1      29.735  38.430 -48.269  1.00  0.00     0.202 C 
ATOM      5  C   UNL     1      30.527  37.656 -49.340  1.00  0.00     0.282 C 
ATOM      6  O   UNL     1      30.896  38.532 -50.406  1.00  0.00    -0.341 OA
ENDROOT
BRANCH   1   7
ATOM      7  C   UNL     1      30.218  39.951 -52.256  1.00  0.00     0.198 C 
BRANCH   7   8
ATOM      8  O   UNL     1      30.062  41.333 -51.910  1.00  0.00    -0.347 OA
BRANCH   8   9
ATOM      9  C   UNL     1      31.284  42.071 -51.992  1.00  0.00     0.281 C 
ATOM     10  C   UNL     1      30.243  44.130 -51.340  1.00  0.00     0.150 C 
ATOM     11  C   UNL     1      30.493  44.771 -52.715  1.00  0.00     0.174 C 
ATOM     12  O   UNL     1      31.241  43.151 -51.045  1.00  0.00    -0.344 OA
ATOM     13  C   UNL     1      30.546  43.673 -53.787  1.00  0.00     0.179 C 
ATOM     14  C   UNL     1      31.563  42.593 -53.417  1.00  0.00     0.202 C 
ATOM     15  C   UNL     1      30.279  45.163 -50.219  1.00  0.00     0.041 C 
BRANCH  11  16
ATOM     16  O   UNL     1      29.464  45.722 -53.059  1.00  0.00    -0.388 OA
ATOM     17  H   UNL     1      29.079  46.010 -52.209  1.00  0.00     0.211 HD
ENDBRANCH  11  16
BRANCH  13  18
ATOM     18  O   UNL     1      30.924  44.248 -55.051  1.00  0.00    -0.387 OA
ATOM     19  H   UNL     1      31.822  43.906 -55.238  1.00  0.00     0.211 HD
ENDBRANCH  13  18
BRANCH  14  20
ATOM     20  O   UNL     1      32.888  43.142 -53.523  1.00  0.00    -0.385 OA
ATOM     21  H   UNL     1      32.747  44.086 -53.747  1.00  0.00     0.211 HD
ENDBRANCH  14  20
ENDBRANCH   8   9
ENDBRANCH   7   8
ENDBRANCH   1   7
BRANCH   2  22
ATOM     22  O   UNL     1      27.718  40.416 -50.733  1.00  0.00    -0.387 OA
ATOM     23  H   UNL     1      27.339  39.650 -51.213  1.00  0.00     0.211 HD
ENDBRANCH   2  22
BRANCH   3  24
ATOM     24  O   UNL     1      27.816  39.888 -47.947  1.00  0.00    -0.387 OA
ATOM     25  H   UNL     1      28.425  40.634 -47.771  1.00  0.00     0.211 HD
ENDBRANCH   3  24
BRANCH   5  26
ATOM     26  O   UNL     1      31.693  37.155 -48.679  1.00  0.00    -0.347 OA
BRANCH  26  27
ATOM     27  C   UNL     1      32.050  35.811 -49.023  1.00  0.00     0.200 C 
BRANCH  27  28
ATOM     28  C   UNL     1      32.040  34.789 -47.865  1.00  0.00     0.170 C 
BRANCH  28  29
ATOM     29  C   UNL     1      31.527  33.388 -48.146  1.00  0.00    -0.013 A 
ATOM     30  C   UNL     1      31.679  32.410 -47.143  1.00  0.00     0.056 A 
ATOM     31  C   UNL     1      30.941  33.004 -49.364  1.00  0.00     0.010 A 
ATOM     32  C   UNL     1      31.224  31.112 -47.348  1.00  0.00     0.157 A 
ATOM     33  C   UNL     1      30.504  31.691 -49.572  1.00  0.00     0.050 A 
ATOM     34  C   UNL     1      30.649  30.756 -48.560  1.00  0.00     0.157 A 
BRANCH  32  35
ATOM     35  O   UNL     1      31.300  30.162 -46.367  1.00  0.00    -0.504 OA
ATOM     36  H   UNL     1      30.420  29.723 -46.308  1.00  0.00     0.293 HD
ENDBRANCH  32  35
BRANCH  34  37
ATOM     37  O   UNL     1      30.212  29.478 -48.763  1.00  0.00    -0.504 OA
ATOM     38  H   UNL     1      29.870  29.480 -49.680  1.00  0.00     0.293 HD
ENDBRANCH  34  37
ENDBRANCH  28  29
BRANCH  28  39
ATOM     39  O   UNL     1      31.347  35.341 -46.742  1.00  0.00    -0.386 OA
ATOM     40  H   UNL     1      30.505  34.842 -46.667  1.00  0.00     0.211 HD
ENDBRANCH  28  39
ENDBRANCH  27  28
ENDBRANCH  26  27
ENDBRANCH   5  26
BRANCH   4  41
ATOM     41  O   UNL     1      29.316  37.569 -47.198  1.00  0.00    -0.385 OA
ATOM     42  H   UNL     1      28.554  37.069 -47.554  1.00  0.00     0.211 HD
ENDBRANCH   4  41
TORSDOF 16
ENDMDL
MODEL 5
REMARK VINA RESULT:    -6.021      2.644      6.780
REMARK INTER + INTRA:         -11.937
REMARK INTER:                 -10.569
REMARK INTRA:                  -1.367
REMARK UNBOUND:                -1.868
REMARK SMILES C[C@@H]1O[C@@H](OC[C@H]2O[C@@H](OCC(O)c3ccc(O)c(O)c3)[C@H](O)[C@@H](O)[C@@H]2O)[C@H](O)[C@H](O)[C@H]1O
REMARK SMILES IDX 7 1 26 2 24 3 22 4 9 5 8 6 6 7 5 8 4 9 2 10 32 11 3 12 30 13
REMARK SMILES IDX 28 14 1 15 33 16 31 18 29 20 27 22 25 24 10 26 11 27 12 28
REMARK SMILES IDX 14 29 21 30 15 31 19 32 16 33 17 34 20 35 18 37 13 39 23 41
REMARK H PARENT 33 17 31 19 29 21 27 23 25 25 20 36 18 38 13 40 23 42
ROOT
ATOM      1  C   UNL     1      26.845  36.595 -48.099  1.00  0.00     0.178 C 
ATOM      2  C   UNL     1      26.479  36.360 -46.626  1.00  0.00     0.177 C 
ATOM      3  C   UNL     1      27.473  35.389 -45.993  1.00  0.00     0.179 C 
ATOM      4  C   UNL     1      28.901  35.878 -46.206  1.00  0.00     0.202 C 
ATOM      5  C   UNL     1      29.147  36.121 -47.707  1.00  0.00     0.282 C 
ATOM      6  O   UNL     1      28.204  37.069 -48.212  1.00  0.00    -0.341 OA
ENDROOT
BRANCH   1   7
ATOM      7  C   UNL     1      25.901  37.631 -48.730  1.00  0.00     0.198 C 
BRANCH   7   8
ATOM      8  O   UNL     1      25.185  38.306 -47.688  1.00  0.00    -0.347 OA
BRANCH   8   9
ATOM      9  C   UNL     1      25.890  39.435 -47.166  1.00  0.00     0.281 C 
ATOM     10  C   UNL     1      23.898  40.752 -46.951  1.00  0.00     0.150 C 
ATOM     11  C   UNL     1      24.359  41.750 -48.026  1.00  0.00     0.174 C 
ATOM     12  O   UNL     1      25.018  40.165 -46.287  1.00  0.00    -0.344 OA
ATOM     13  C   UNL     1      25.296  41.038 -49.012  1.00  0.00     0.179 C 
ATOM     14  C   UNL     1      26.446  40.348 -48.278  1.00  0.00     0.202 C 
ATOM     15  C   UNL     1      23.043  41.426 -45.883  1.00  0.00     0.041 C 
BRANCH  11  16
ATOM     16  O   UNL     1      23.245  42.313 -48.749  1.00  0.00    -0.388 OA
ATOM     17  H   UNL     1      22.660  41.559 -48.957  1.00  0.00     0.211 HD
ENDBRANCH  11  16
BRANCH  13  18
ATOM     18  O   UNL     1      25.846  41.997 -49.934  1.00  0.00    -0.387 OA
ATOM     19  H   UNL     1      25.612  41.670 -50.826  1.00  0.00     0.211 HD
ENDBRANCH  13  18
BRANCH  14  20
ATOM     20  O   UNL     1      27.326  41.351 -47.741  1.00  0.00    -0.385 OA
ATOM     21  H   UNL     1      28.203  40.916 -47.706  1.00  0.00     0.211 HD
ENDBRANCH  14  20
ENDBRANCH   8   9
ENDBRANCH   7   8
ENDBRANCH   1   7
BRANCH   2  22
ATOM     22  O   UNL     1      25.159  35.827 -46.499  1.00  0.00    -0.387 OA
ATOM     23  H   UNL     1      25.284  34.894 -46.227  1.00  0.00     0.211 HD
ENDBRANCH   2  22
BRANCH   3  24
ATOM     24  O   UNL     1      27.186  35.273 -44.592  1.00  0.00    -0.387 OA
ATOM     25  H   UNL     1      26.222  35.106 -44.542  1.00  0.00     0.211 HD
ENDBRANCH   3  24
BRANCH   5  26
ATOM     26  O   UNL     1      30.478  36.638 -47.807  1.00  0.00    -0.347 OA
BRANCH  26  27
ATOM     27  C   UNL     1      31.301  35.997 -48.789  1.00  0.00     0.200 C 
BRANCH  27  28
ATOM     28  C   UNL     1      32.162  34.818 -48.285  1.00  0.00     0.170 C 
BRANCH  28  29
ATOM     29  C   UNL     1      31.586  33.417 -48.373  1.00  0.00    -0.013 A 
ATOM     30  C   UNL     1      31.771  32.550 -47.278  1.00  0.00     0.056 A 
ATOM     31  C   UNL     1      30.907  32.924 -49.501  1.00  0.00     0.010 A 
ATOM     32  C   UNL     1      31.260  31.258 -47.305  1.00  0.00     0.157 A 
ATOM     33  C   UNL     1      30.414  31.615 -49.531  1.00  0.00     0.050 A 
ATOM     34  C   UNL     1      30.594  30.792 -48.431  1.00  0.00     0.157 A 
BRANCH  32  35
ATOM     35  O   UNL     1      31.370  30.419 -46.229  1.00  0.00    -0.504 OA
ATOM     36  H   UNL     1      31.717  29.558 -46.557  1.00  0.00     0.293 HD
ENDBRANCH  32  35
BRANCH  34  37
ATOM     37  O   UNL     1      30.103  29.519 -48.461  1.00  0.00    -0.504 OA
ATOM     38  H   UNL     1      29.602  29.432 -47.626  1.00  0.00     0.293 HD
ENDBRANCH  34  37
ENDBRANCH  28  29
BRANCH  28  39
ATOM     39  O   UNL     1      32.600  35.078 -46.948  1.00  0.00    -0.386 OA
ATOM     40  H   UNL     1      32.144  35.900 -46.665  1.00  0.00     0.211 HD
ENDBRANCH  28  39
ENDBRANCH  27  28
ENDBRANCH  26  27
ENDBRANCH   5  26
BRANCH   4  41
ATOM     41  O   UNL     1      29.809  34.901 -45.674  1.00  0.00    -0.385 OA
ATOM     42  H   UNL     1      29.555  34.057 -46.097  1.00  0.00     0.211 HD
ENDBRANCH   4  41
TORSDOF 16
ENDMDL
MODEL 6
REMARK VINA RESULT:    -6.012      2.488      6.242
REMARK INTER + INTRA:         -11.921
REMARK INTER:                 -10.167
REMARK INTRA:                  -1.754
REMARK UNBOUND:                -1.868
REMARK SMILES C[C@@H]1O[C@@H](OC[C@H]2O[C@@H](OCC(O)c3ccc(O)c(O)c3)[C@H](O)[C@@H](O)[C@@H]2O)[C@H](O)[C@H](O)[C@H]1O
REMARK SMILES IDX 7 1 26 2 24 3 22 4 9 5 8 6 6 7 5 8 4 9 2 10 32 11 3 12 30 13
REMARK SMILES IDX 28 14 1 15 33 16 31 18 29 20 27 22 25 24 10 26 11 27 12 28
REMARK SMILES IDX 14 29 21 30 15 31 19 32 16 33 17 34 20 35 18 37 13 39 23 41
REMARK H PARENT 33 17 31 19 29 21 27 23 25 25 20 36 18 38 13 40 23 42
ROOT
ATOM      1  C   UNL     1      26.705  35.534 -48.338  1.00  0.00     0.178 C 
ATOM      2  C   UNL     1      26.344  35.622 -46.848  1.00  0.00     0.177 C 
ATOM      3  C   UNL     1      27.503  35.098 -46.002  1.00  0.00     0.179 C 
ATOM      4  C   UNL     1      28.795  35.817 -46.369  1.00  0.00     0.202 C 
ATOM      5  C   UNL     1      29.039  35.703 -47.886  1.00  0.00     0.282 C 
ATOM      6  O   UNL     1      27.931  36.250 -48.603  1.00  0.00    -0.341 OA
ENDROOT
BRANCH   1   7
ATOM      7  C   UNL     1      25.581  36.131 -49.200  1.00  0.00     0.198 C 
BRANCH   7   8
ATOM      8  O   UNL     1      26.000  37.410 -49.692  1.00  0.00    -0.347 OA
BRANCH   8   9
ATOM      9  C   UNL     1      25.020  38.433 -49.497  1.00  0.00     0.281 C 
ATOM     10  C   UNL     1      26.614  40.203 -49.767  1.00  0.00     0.150 C 
ATOM     11  C   UNL     1      26.466  40.653 -48.303  1.00  0.00     0.174 C 
ATOM     12  O   UNL     1      25.408  39.600 -50.239  1.00  0.00    -0.344 OA
ATOM     13  C   UNL     1      26.055  39.451 -47.441  1.00  0.00     0.179 C 
ATOM     14  C   UNL     1      24.808  38.769 -48.006  1.00  0.00     0.202 C 
ATOM     15  C   UNL     1      26.924  41.376 -50.690  1.00  0.00     0.041 C 
BRANCH  11  16
ATOM     16  O   UNL     1      27.690  41.213 -47.787  1.00  0.00    -0.388 OA
ATOM     17  H   UNL     1      27.893  40.701 -46.980  1.00  0.00     0.211 HD
ENDBRANCH  11  16
BRANCH  13  18
ATOM     18  O   UNL     1      25.772  39.891 -46.101  1.00  0.00    -0.387 OA
ATOM     19  H   UNL     1      25.478  39.093 -45.617  1.00  0.00     0.211 HD
ENDBRANCH  13  18
BRANCH  14  20
ATOM     20  O   UNL     1      23.676  39.637 -47.820  1.00  0.00    -0.385 OA
ATOM     21  H   UNL     1      23.322  39.396 -46.939  1.00  0.00     0.211 HD
ENDBRANCH  14  20
ENDBRANCH   8   9
ENDBRANCH   7   8
ENDBRANCH   1   7
BRANCH   2  22
ATOM     22  O   UNL     1      25.170  34.863 -46.553  1.00  0.00    -0.387 OA
ATOM     23  H   UNL     1      24.601  34.950 -47.346  1.00  0.00     0.211 HD
ENDBRANCH   2  22
BRANCH   3  24
ATOM     24  O   UNL     1      27.195  35.295 -44.613  1.00  0.00    -0.387 OA
ATOM     25  H   UNL     1      27.775  34.669 -44.133  1.00  0.00     0.211 HD
ENDBRANCH   3  24
BRANCH   5  26
ATOM     26  O   UNL     1      30.227  36.456 -48.150  1.00  0.00    -0.347 OA
BRANCH  26  27
ATOM     27  C   UNL     1      31.147  35.834 -49.054  1.00  0.00     0.200 C 
BRANCH  27  28
ATOM     28  C   UNL     1      32.049  34.735 -48.453  1.00  0.00     0.170 C 
BRANCH  28  29
ATOM     29  C   UNL     1      31.537  33.306 -48.449  1.00  0.00    -0.013 A 
ATOM     30  C   UNL     1      31.754  32.524 -47.297  1.00  0.00     0.056 A 
ATOM     31  C   UNL     1      30.889  32.709 -49.543  1.00  0.00     0.010 A 
ATOM     32  C   UNL     1      31.303  31.210 -47.240  1.00  0.00     0.157 A 
ATOM     33  C   UNL     1      30.456  31.379 -49.488  1.00  0.00     0.050 A 
ATOM     34  C   UNL     1      30.666  30.641 -48.335  1.00  0.00     0.157 A 
BRANCH  32  35
ATOM     35  O   UNL     1      31.443  30.452 -46.110  1.00  0.00    -0.504 OA
ATOM     36  H   UNL     1      32.317  30.670 -45.711  1.00  0.00     0.293 HD
ENDBRANCH  32  35
BRANCH  34  37
ATOM     37  O   UNL     1      30.233  29.348 -48.280  1.00  0.00    -0.504 OA
ATOM     38  H   UNL     1      30.954  28.831 -48.693  1.00  0.00     0.293 HD
ENDBRANCH  34  37
ENDBRANCH  28  29
BRANCH  28  39
ATOM     39  O   UNL     1      32.449  35.109 -47.132  1.00  0.00    -0.386 OA
ATOM     40  H   UNL     1      32.190  36.049 -47.022  1.00  0.00     0.211 HD
ENDBRANCH  28  39
ENDBRANCH  27  28
ENDBRANCH  26  27
ENDBRANCH   5  26
BRANCH   4  41
ATOM     41  O   UNL     1      29.876  35.241 -45.616  1.00  0.00    -0.385 OA
ATOM     42  H   UNL     1      30.026  34.362 -46.017  1.00  0.00     0.211 HD
ENDBRANCH   4  41
TORSDOF 16
ENDMDL
MODEL 7
REMARK VINA RESULT:    -5.913      2.610      7.579
REMARK INTER + INTRA:         -11.756
REMARK INTER:                  -9.663
REMARK INTRA:                  -2.093
REMARK UNBOUND:                -1.868
REMARK SMILES C[C@@H]1O[C@@H](OC[C@H]2O[C@@H](OCC(O)c3ccc(O)c(O)c3)[C@H](O)[C@@H](O)[C@@H]2O)[C@H](O)[C@H](O)[C@H]1O
REMARK SMILES IDX 7 1 26 2 24 3 22 4 9 5 8 6 6 7 5 8 4 9 2 10 32 11 3 12 30 13
REMARK SMILES IDX 28 14 1 15 33 16 31 18 29 20 27 22 25 24 10 26 11 27 12 28
REMARK SMILES IDX 14 29 21 30 15 31 19 32 16 33 17 34 20 35 18 37 13 39 23 41
REMARK H PARENT 33 17 31 19 29 21 27 23 25 25 20 36 18 38 13 40 23 42
ROOT
ATOM      1  C   UNL     1      24.698  39.028 -49.100  1.00  0.00     0.178 C 
ATOM      2  C   UNL     1      24.478  40.434 -48.521  1.00  0.00     0.177 C 
ATOM      3  C   UNL     1      23.895  40.329 -47.113  1.00  0.00     0.179 C 
ATOM      4  C   UNL     1      24.767  39.431 -46.243  1.00  0.00     0.202 C 
ATOM      5  C   UNL     1      24.958  38.068 -46.934  1.00  0.00     0.282 C 
ATOM      6  O   UNL     1      25.543  38.249 -48.225  1.00  0.00    -0.341 OA
ENDROOT
BRANCH   1   7
ATOM      7  C   UNL     1      25.357  39.114 -50.486  1.00  0.00     0.198 C 
BRANCH   7   8
ATOM      8  O   UNL     1      26.617  38.433 -50.446  1.00  0.00    -0.347 OA
BRANCH   8   9
ATOM      9  C   UNL     1      27.690  39.209 -50.984  1.00  0.00     0.281 C 
ATOM     10  C   UNL     1      29.363  37.975 -49.791  1.00  0.00     0.150 C 
ATOM     11  C   UNL     1      29.745  39.192 -48.931  1.00  0.00     0.174 C 
ATOM     12  O   UNL     1      28.866  38.388 -51.065  1.00  0.00    -0.344 OA
ATOM     13  C   UNL     1      28.530  40.120 -48.794  1.00  0.00     0.179 C 
ATOM     14  C   UNL     1      27.961  40.488 -50.165  1.00  0.00     0.202 C 
ATOM     15  C   UNL     1      30.561  37.066 -50.047  1.00  0.00     0.041 C 
BRANCH  11  16
ATOM     16  O   UNL     1      30.197  38.801 -47.619  1.00  0.00    -0.388 OA
ATOM     17  H   UNL     1      30.286  39.632 -47.114  1.00  0.00     0.211 HD
ENDBRANCH  11  16
BRANCH  13  18
ATOM     18  O   UNL     1      28.918  41.328 -48.116  1.00  0.00    -0.387 OA
ATOM     19  H   UNL     1      28.363  41.369 -47.311  1.00  0.00     0.211 HD
ENDBRANCH  13  18
BRANCH  14  20
ATOM     20  O   UNL     1      28.891  41.354 -50.839  1.00  0.00    -0.385 OA
ATOM     21  H   UNL     1      29.577  41.551 -50.167  1.00  0.00     0.211 HD
ENDBRANCH  14  20
ENDBRANCH   8   9
ENDBRANCH   7   8
ENDBRANCH   1   7
BRANCH   2  22
ATOM     22  O   UNL     1      23.589  41.198 -49.338  1.00  0.00    -0.387 OA
ATOM     23  H   UNL     1      23.338  40.601 -50.073  1.00  0.00     0.211 HD
ENDBRANCH   2  22
BRANCH   3  24
ATOM     24  O   UNL     1      23.806  41.644 -46.544  1.00  0.00    -0.387 OA
ATOM     25  H   UNL     1      22.998  41.628 -45.991  1.00  0.00     0.211 HD
ENDBRANCH   3  24
BRANCH   5  26
ATOM     26  O   UNL     1      25.836  37.319 -46.089  1.00  0.00    -0.347 OA
BRANCH  26  27
ATOM     27  C   UNL     1      27.167  37.156 -46.594  1.00  0.00     0.200 C 
BRANCH  27  28
ATOM     28  C   UNL     1      28.052  36.129 -45.855  1.00  0.00     0.170 C 
BRANCH  28  29
ATOM     29  C   UNL     1      28.958  35.234 -46.680  1.00  0.00    -0.013 A 
ATOM     30  C   UNL     1      30.350  35.429 -46.589  1.00  0.00     0.056 A 
ATOM     31  C   UNL     1      28.484  34.242 -47.556  1.00  0.00     0.010 A 
ATOM     32  C   UNL     1      31.225  34.634 -47.321  1.00  0.00     0.157 A 
ATOM     33  C   UNL     1      29.368  33.459 -48.306  1.00  0.00     0.050 A 
ATOM     34  C   UNL     1      30.733  33.661 -48.182  1.00  0.00     0.157 A 
BRANCH  32  35
ATOM     35  O   UNL     1      32.582  34.760 -47.201  1.00  0.00    -0.504 OA
ATOM     36  H   UNL     1      32.761  35.285 -46.386  1.00  0.00     0.293 HD
ENDBRANCH  32  35
BRANCH  34  37
ATOM     37  O   UNL     1      31.592  32.889 -48.907  1.00  0.00    -0.504 OA
ATOM     38  H   UNL     1      32.279  33.513 -49.217  1.00  0.00     0.293 HD
ENDBRANCH  34  37
ENDBRANCH  28  29
BRANCH  28  39
ATOM     39  O   UNL     1      27.241  35.329 -44.989  1.00  0.00    -0.386 OA
ATOM     40  H   UNL     1      27.618  35.431 -44.088  1.00  0.00     0.211 HD
ENDBRANCH  28  39
ENDBRANCH  27  28
ENDBRANCH  26  27
ENDBRANCH   5  26
BRANCH   4  41
ATOM     41  O   UNL     1      24.146  39.288 -44.956  1.00  0.00    -0.385 OA
ATOM     42  H   UNL     1      24.097  40.195 -44.593  1.00  0.00     0.211 HD
ENDBRANCH   4  41
TORSDOF 16
ENDMDL
MODEL 8
REMARK VINA RESULT:    -5.907      1.735      2.899
REMARK INTER + INTRA:         -11.746
REMARK INTER:                  -9.655
REMARK INTRA:                  -2.091
REMARK UNBOUND:                -1.868
REMARK SMILES C[C@@H]1O[C@@H](OC[C@H]2O[C@@H](OCC(O)c3ccc(O)c(O)c3)[C@H](O)[C@@H](O)[C@@H]2O)[C@H](O)[C@H](O)[C@H]1O
REMARK SMILES IDX 7 1 26 2 24 3 22 4 9 5 8 6 6 7 5 8 4 9 2 10 32 11 3 12 30 13
REMARK SMILES IDX 28 14 1 15 33 16 31 18 29 20 27 22 25 24 10 26 11 27 12 28
REMARK SMILES IDX 14 29 21 30 15 31 19 32 16 33 17 34 20 35 18 37 13 39 23 41
REMARK H PARENT 33 17 31 19 29 21 27 23 25 25 20 36 18 38 13 40 23 42
ROOT
ATOM      1  C   UNL     1      28.619  31.656 -48.817  1.00  0.00     0.178 C 
ATOM      2  C   UNL     1      28.247  30.489 -47.891  1.00  0.00     0.177 C 
ATOM      3  C   UNL     1      29.515  29.783 -47.413  1.00  0.00     0.179 C 
ATOM      4  C   UNL     1      30.477  30.786 -46.788  1.00  0.00     0.202 C 
ATOM      5  C   UNL     1      30.747  31.932 -47.781  1.00  0.00     0.282 C 
ATOM      6  O   UNL     1      29.519  32.565 -48.147  1.00  0.00    -0.341 OA
ENDROOT
BRANCH   1   7
ATOM      7  C   UNL     1      27.359  32.426 -49.244  1.00  0.00     0.198 C 
BRANCH   7   8
ATOM      8  O   UNL     1      27.553  33.821 -48.980  1.00  0.00    -0.347 OA
BRANCH   8   9
ATOM      9  C   UNL     1      26.375  34.467 -48.491  1.00  0.00     0.281 C 
ATOM     10  C   UNL     1      27.395  36.636 -48.499  1.00  0.00     0.150 C 
ATOM     11  C   UNL     1      27.336  36.746 -46.966  1.00  0.00     0.174 C 
ATOM     12  O   UNL     1      26.337  35.813 -48.992  1.00  0.00    -0.344 OA
ATOM     13  C   UNL     1      27.378  35.339 -46.353  1.00  0.00     0.179 C 
ATOM     14  C   UNL     1      26.289  34.446 -46.950  1.00  0.00     0.202 C 
ATOM     15  C   UNL     1      27.255  37.999 -49.168  1.00  0.00     0.041 C 
BRANCH  11  16
ATOM     16  O   UNL     1      28.428  37.526 -46.441  1.00  0.00    -0.388 OA
ATOM     17  H   UNL     1      28.423  38.360 -46.950  1.00  0.00     0.211 HD
ENDBRANCH  11  16
BRANCH  13  18
ATOM     18  O   UNL     1      27.176  35.424 -44.931  1.00  0.00    -0.387 OA
ATOM     19  H   UNL     1      27.346  34.524 -44.586  1.00  0.00     0.211 HD
ENDBRANCH  13  18
BRANCH  14  20
ATOM     20  O   UNL     1      25.005  34.905 -46.491  1.00  0.00    -0.385 OA
ATOM     21  H   UNL     1      24.470  34.996 -47.307  1.00  0.00     0.211 HD
ENDBRANCH  14  20
ENDBRANCH   8   9
ENDBRANCH   7   8
ENDBRANCH   1   7
BRANCH   2  22
ATOM     22  O   UNL     1      27.411  29.543 -48.559  1.00  0.00    -0.387 OA
ATOM     23  H   UNL     1      27.871  28.683 -48.470  1.00  0.00     0.211 HD
ENDBRANCH   2  22
BRANCH   3  24
ATOM     24  O   UNL     1      29.156  28.771 -46.459  1.00  0.00    -0.387 OA
ATOM     25  H   UNL     1      29.048  29.248 -45.611  1.00  0.00     0.211 HD
ENDBRANCH   3  24
BRANCH   5  26
ATOM     26  O   UNL     1      31.599  32.854 -47.094  1.00  0.00    -0.347 OA
BRANCH  26  27
ATOM     27  C   UNL     1      31.051  34.166 -46.919  1.00  0.00     0.200 C 
BRANCH  27  28
ATOM     28  C   UNL     1      31.909  35.335 -47.453  1.00  0.00     0.170 C 
BRANCH  28  29
ATOM     29  C   UNL     1      31.429  36.075 -48.688  1.00  0.00    -0.013 A 
ATOM     30  C   UNL     1      31.239  37.468 -48.599  1.00  0.00     0.056 A 
ATOM     31  C   UNL     1      31.130  35.442 -49.907  1.00  0.00     0.010 A 
ATOM     32  C   UNL     1      30.804  38.194 -49.701  1.00  0.00     0.157 A 
ATOM     33  C   UNL     1      30.672  36.175 -51.007  1.00  0.00     0.050 A 
ATOM     34  C   UNL     1      30.513  37.547 -50.895  1.00  0.00     0.157 A 
BRANCH  32  35
ATOM     35  O   UNL     1      30.674  39.556 -49.659  1.00  0.00    -0.504 OA
ATOM     36  H   UNL     1      31.553  39.945 -49.873  1.00  0.00     0.293 HD
ENDBRANCH  32  35
BRANCH  34  37
ATOM     37  O   UNL     1      30.076  38.260 -51.974  1.00  0.00    -0.504 OA
ATOM     38  H   UNL     1      29.102  38.181 -51.939  1.00  0.00     0.293 HD
ENDBRANCH  34  37
ENDBRANCH  28  29
BRANCH  28  39
ATOM     39  O   UNL     1      33.256  34.895 -47.646  1.00  0.00    -0.386 OA
ATOM     40  H   UNL     1      33.831  35.645 -47.380  1.00  0.00     0.211 HD
ENDBRANCH  28  39
ENDBRANCH  27  28
ENDBRANCH  26  27
ENDBRANCH   5  26
BRANCH   4  41
ATOM     41  O   UNL     1      31.689  30.103 -46.428  1.00  0.00    -0.385 OA
ATOM     42  H   UNL     1      31.711  30.119 -45.451  1.00  0.00     0.211 HD
ENDBRANCH   4  41
TORSDOF 16
ENDMDL
MODEL 9
REMARK VINA RESULT:    -5.838      3.321      8.069
REMARK INTER + INTRA:         -11.630
REMARK INTER:                  -9.620
REMARK INTRA:                  -2.011
REMARK UNBOUND:                -1.868
REMARK SMILES C[C@@H]1O[C@@H](OC[C@H]2O[C@@H](OCC(O)c3ccc(O)c(O)c3)[C@H](O)[C@@H](O)[C@@H]2O)[C@H](O)[C@H](O)[C@H]1O
REMARK SMILES IDX 7 1 26 2 24 3 22 4 9 5 8 6 6 7 5 8 4 9 2 10 32 11 3 12 30 13
REMARK SMILES IDX 28 14 1 15 33 16 31 18 29 20 27 22 25 24 10 26 11 27 12 28
REMARK SMILES IDX 14 29 21 30 15 31 19 32 16 33 17 34 20 35 18 37 13 39 23 41
REMARK H PARENT 33 17 31 19 29 21 27 23 25 25 20 36 18 38 13 40 23 42
ROOT
ATOM      1  C   UNL     1      30.252  40.877 -54.168  1.00  0.00     0.178 C 
ATOM      2  C   UNL     1      31.558  41.662 -54.359  1.00  0.00     0.177 C 
ATOM      3  C   UNL     1      31.563  42.889 -53.449  1.00  0.00     0.179 C 
ATOM      4  C   UNL     1      31.292  42.480 -52.006  1.00  0.00     0.202 C 
ATOM      5  C   UNL     1      29.987  41.665 -51.935  1.00  0.00     0.282 C 
ATOM      6  O   UNL     1      30.078  40.517 -52.780  1.00  0.00    -0.341 OA
ENDROOT
BRANCH   1   7
ATOM      7  C   UNL     1      30.265  39.597 -55.019  1.00  0.00     0.198 C 
BRANCH   7   8
ATOM      8  O   UNL     1      30.403  38.463 -54.153  1.00  0.00    -0.347 OA
BRANCH   8   9
ATOM      9  C   UNL     1      29.422  37.451 -54.396  1.00  0.00     0.281 C 
ATOM     10  C   UNL     1      29.491  36.650 -52.137  1.00  0.00     0.150 C 
ATOM     11  C   UNL     1      30.084  35.296 -52.563  1.00  0.00     0.174 C 
ATOM     12  O   UNL     1      28.692  37.207 -53.183  1.00  0.00    -0.344 OA
ATOM     13  C   UNL     1      30.889  35.478 -53.858  1.00  0.00     0.179 C 
ATOM     14  C   UNL     1      30.043  36.148 -54.941  1.00  0.00     0.202 C 
ATOM     15  C   UNL     1      28.596  36.514 -50.910  1.00  0.00     0.041 C 
BRANCH  11  16
ATOM     16  O   UNL     1      30.941  34.742 -51.544  1.00  0.00    -0.388 OA
ATOM     17  H   UNL     1      31.529  35.473 -51.270  1.00  0.00     0.211 HD
ENDBRANCH  11  16
BRANCH  13  18
ATOM     18  O   UNL     1      31.325  34.195 -54.341  1.00  0.00    -0.387 OA
ATOM     19  H   UNL     1      31.037  33.547 -53.666  1.00  0.00     0.211 HD
ENDBRANCH  13  18
BRANCH  14  20
ATOM     20  O   UNL     1      29.028  35.227 -55.378  1.00  0.00    -0.385 OA
ATOM     21  H   UNL     1      28.302  35.798 -55.704  1.00  0.00     0.211 HD
ENDBRANCH  14  20
ENDBRANCH   8   9
ENDBRANCH   7   8
ENDBRANCH   1   7
BRANCH   2  22
ATOM     22  O   UNL     1      31.715  42.086 -55.714  1.00  0.00    -0.387 OA
ATOM     23  H   UNL     1      30.996  41.640 -56.209  1.00  0.00     0.211 HD
ENDBRANCH   2  22
BRANCH   3  24
ATOM     24  O   UNL     1      32.836  43.545 -53.554  1.00  0.00    -0.387 OA
ATOM     25  H   UNL     1      33.234  43.197 -54.379  1.00  0.00     0.211 HD
ENDBRANCH   3  24
BRANCH   5  26
ATOM     26  O   UNL     1      29.846  41.269 -50.567  1.00  0.00    -0.347 OA
BRANCH  26  27
ATOM     27  C   UNL     1      30.183  39.903 -50.298  1.00  0.00     0.200 C 
BRANCH  27  28
ATOM     28  C   UNL     1      30.820  39.621 -48.920  1.00  0.00     0.170 C 
BRANCH  28  29
ATOM     29  C   UNL     1      30.754  38.207 -48.371  1.00  0.00    -0.013 A 
ATOM     30  C   UNL     1      31.661  37.254 -48.874  1.00  0.00     0.056 A 
ATOM     31  C   UNL     1      29.815  37.788 -47.413  1.00  0.00     0.010 A 
ATOM     32  C   UNL     1      31.645  35.946 -48.403  1.00  0.00     0.157 A 
ATOM     33  C   UNL     1      29.789  36.465 -46.959  1.00  0.00     0.050 A 
ATOM     34  C   UNL     1      30.706  35.554 -47.457  1.00  0.00     0.157 A 
BRANCH  32  35
ATOM     35  O   UNL     1      32.557  35.019 -48.827  1.00  0.00    -0.504 OA
ATOM     36  H   UNL     1      32.668  34.358 -48.105  1.00  0.00     0.293 HD
ENDBRANCH  32  35
BRANCH  34  37
ATOM     37  O   UNL     1      30.685  34.267 -47.004  1.00  0.00    -0.504 OA
ATOM     38  H   UNL     1      30.221  34.319 -46.144  1.00  0.00     0.293 HD
ENDBRANCH  34  37
ENDBRANCH  28  29
BRANCH  28  39
ATOM     39  O   UNL     1      30.302  40.539 -47.953  1.00  0.00    -0.386 OA
ATOM     40  H   UNL     1      30.746  40.323 -47.104  1.00  0.00     0.211 HD
ENDBRANCH  28  39
ENDBRANCH  27  28
ENDBRANCH  26  27
ENDBRANCH   5  26
BRANCH   4  41
ATOM     41  O   UNL     1      31.220  43.664 -51.195  1.00  0.00    -0.385 OA
ATOM     42  H   UNL     1      31.152  43.340 -50.274  1.00  0.00     0.211 HD
ENDBRANCH   4  41
TORSDOF 16
ENDMDL
