MODEL 1
REMARK VINA RESULT:    -6.334      0.000      0.000
REMARK INTER + INTRA:         -12.472
REMARK INTER:                 -10.592
REMARK INTRA:                  -1.880
REMARK UNBOUND:                -1.880
REMARK SMILES C[C@@H]1O[C@@H](OC[C@H]2O[C@@H](OCC(O)c3ccc(O)c(O)c3)[C@H](O)[C@@H](O)[C@@H]2O)[C@H](O)[C@H](O)[C@H]1O
REMARK SMILES IDX 7 1 26 2 24 3 22 4 9 5 8 6 6 7 5 8 4 9 2 10 32 11 3 12 30 13
REMARK SMILES IDX 28 14 1 15 33 16 31 18 29 20 27 22 25 24 10 26 11 27 12 28
REMARK SMILES IDX 14 29 21 30 15 31 19 32 16 33 17 34 20 35 18 37 13 39 23 41
REMARK H PARENT 33 17 31 19 29 21 27 23 25 25 20 36 18 38 13 40 23 42
ROOT
ATOM      1  C   UNL     1      29.772  32.790 -48.813  1.00  0.00     0.178 C 
ATOM      2  C   UNL     1      30.207  32.174 -47.475  1.00  0.00     0.177 C 
ATOM      3  C   UNL     1      31.722  32.293 -47.319  1.00  0.00     0.179 C 
ATOM      4  C   UNL     1      32.164  33.739 -47.507  1.00  0.00     0.202 C 
ATOM      5  C   UNL     1      31.641  34.269 -48.856  1.00  0.00     0.282 C 
ATOM      6  O   UNL     1      30.217  34.161 -48.907  1.00  0.00    -0.341 OA
ENDROOT
BRANCH   1   7
ATOM      7  C   UNL     1      28.242  32.750 -48.952  1.00  0.00     0.198 C 
BRANCH   7   8
ATOM      8  O   UNL     1      27.754  34.087 -49.121  1.00  0.00    -0.347 OA
BRANCH   8   9
ATOM      9  C   UNL     1      26.479  34.299 -48.510  1.00  0.00     0.281 C 
ATOM     10  C   UNL     1      26.693  36.685 -48.571  1.00  0.00     0.150 C 
ATOM     11  C   UNL     1      26.746  36.789 -47.037  1.00  0.00     0.174 C 
ATOM     12  O   UNL     1      25.937  35.544 -48.979  1.00  0.00    -0.344 OA
ATOM     13  C   UNL     1      27.323  35.488 -46.460  1.00  0.00     0.179 C 
ATOM     14  C   UNL     1      26.552  34.270 -46.969  1.00  0.00     0.202 C 
ATOM     15  C   UNL     1      26.035  37.910 -49.197  1.00  0.00     0.041 C 
BRANCH  11  16
ATOM     16  O   UNL     1      27.553  37.902 -46.602  1.00  0.00    -0.388 OA
ATOM     17  H   UNL     1      27.170  38.186 -45.749  1.00  0.00     0.211 HD
ENDBRANCH  11  16
BRANCH  13  18
ATOM     18  O   UNL     1      27.241  35.519 -45.023  1.00  0.00    -0.387 OA
ATOM     19  H   UNL     1      27.689  34.705 -44.716  1.00  0.00     0.211 HD
ENDBRANCH  13  18
BRANCH  14  20
ATOM     20  O   UNL     1      25.239  34.270 -46.383  1.00  0.00    -0.385 OA
ATOM     21  H   UNL     1      25.389  34.038 -45.442  1.00  0.00     0.211 HD
ENDBRANCH  14  20
ENDBRANCH   8   9
ENDBRANCH   7   8
ENDBRANCH   1   7
BRANCH   2  22
ATOM     22  O   UNL     1      29.836  30.797 -47.393  1.00  0.00    -0.387 OA
ATOM     23  H   UNL     1      30.062  30.524 -46.480  1.00  0.00     0.211 HD
ENDBRANCH   2  22
BRANCH   3  24
ATOM     24  O   UNL     1      32.096  31.820 -46.015  1.00  0.00    -0.387 OA
ATOM     25  H   UNL     1      31.407  31.168 -45.774  1.00  0.00     0.211 HD
ENDBRANCH   3  24
BRANCH   5  26
ATOM     26  O   UNL     1      32.040  35.641 -48.920  1.00  0.00    -0.347 OA
BRANCH  26  27
ATOM     27  C   UNL     1      31.266  36.454 -49.809  1.00  0.00     0.200 C 
BRANCH  27  28
ATOM     28  C   UNL     1      30.359  37.512 -49.144  1.00  0.00     0.170 C 
BRANCH  28  29
ATOM     29  C   UNL     1      30.711  38.977 -49.323  1.00  0.00    -0.013 A 
ATOM     30  C   UNL     1      30.182  39.659 -50.437  1.00  0.00     0.056 A 
ATOM     31  C   UNL     1      31.563  39.684 -48.457  1.00  0.00     0.010 A 
ATOM     32  C   UNL     1      30.471  41.003 -50.646  1.00  0.00     0.157 A 
ATOM     33  C   UNL     1      31.867  41.031 -48.684  1.00  0.00     0.050 A 
ATOM     34  C   UNL     1      31.317  41.680 -49.778  1.00  0.00     0.157 A 
BRANCH  32  35
ATOM     35  O   UNL     1      29.918  41.703 -51.684  1.00  0.00    -0.504 OA
ATOM     36  H   UNL     1      28.943  41.718 -51.547  1.00  0.00     0.293 HD
ENDBRANCH  32  35
BRANCH  34  37
ATOM     37  O   UNL     1      31.608  42.996 -49.990  1.00  0.00    -0.504 OA
ATOM     38  H   UNL     1      30.865  43.480 -49.578  1.00  0.00     0.293 HD
ENDBRANCH  34  37
ENDBRANCH  28  29
BRANCH  28  39
ATOM     39  O   UNL     1      30.215  37.216 -47.752  1.00  0.00    -0.386 OA
ATOM     40  H   UNL     1      30.987  36.662 -47.507  1.00  0.00     0.211 HD
ENDBRANCH  28  39
ENDBRANCH  27  28
ENDBRANCH  26  27
ENDBRANCH   5  26
BRANCH   4  41
ATOM     41  O   UNL     1      33.598  33.799 -47.437  1.00  0.00    -0.385 OA
ATOM     42  H   UNL     1      33.913  33.170 -48.117  1.00  0.00     0.211 HD
ENDBRANCH   4  41
TORSDOF 16
ENDMDL
MODEL 2
REMARK VINA RESULT:    -6.284      1.636      2.153
REMARK INTER + INTRA:         -12.389
REMARK INTER:                 -10.021
REMARK INTRA:                  -2.367
REMARK UNBOUND:                -1.880
REMARK SMILES C[C@@H]1O[C@@H](OC[C@H]2O[C@@H](OCC(O)c3ccc(O)c(O)c3)[C@H](O)[C@@H](O)[C@@H]2O)[C@H](O)[C@H](O)[C@H]1O
REMARK SMILES IDX 7 1 26 2 24 3 22 4 9 5 8 6 6 7 5 8 4 9 2 10 32 11 3 12 30 13
REMARK SMILES IDX 28 14 1 15 33 16 31 18 29 20 27 22 25 24 10 26 11 27 12 28
REMARK SMILES IDX 14 29 21 30 15 31 19 32 16 33 17 34 20 35 18 37 13 39 23 41
REMARK H PARENT 33 17 31 19 29 21 27 23 25 25 20 36 18 38 13 40 23 42
ROOT
ATOM      1  C   UNL     1      30.585  32.336 -48.885  1.00  0.00     0.178 C 
ATOM      2  C   UNL     1      30.626  31.912 -47.409  1.00  0.00     0.177 C 
ATOM      3  C   UNL     1      32.064  31.959 -46.896  1.00  0.00     0.179 C 
ATOM      4  C   UNL     1      32.678  33.328 -47.163  1.00  0.00     0.202 C 
ATOM      5  C   UNL     1      32.546  33.671 -48.659  1.00  0.00     0.282 C 
ATOM      6  O   UNL     1      31.172  33.646 -49.050  1.00  0.00    -0.341 OA
ENDROOT
BRANCH   1   7
ATOM      7  C   UNL     1      29.136  32.370 -49.395  1.00  0.00     0.198 C 
BRANCH   7   8
ATOM      8  O   UNL     1      28.292  32.904 -48.368  1.00  0.00    -0.347 OA
BRANCH   8   9
ATOM      9  C   UNL     1      27.824  34.224 -48.657  1.00  0.00     0.281 C 
ATOM     10  C   UNL     1      28.596  35.104 -46.565  1.00  0.00     0.150 C 
ATOM     11  C   UNL     1      27.165  35.380 -46.075  1.00  0.00     0.174 C 
ATOM     12  O   UNL     1      28.669  35.176 -47.990  1.00  0.00    -0.344 OA
ATOM     13  C   UNL     1      26.199  34.392 -46.743  1.00  0.00     0.179 C 
ATOM     14  C   UNL     1      26.345  34.424 -48.265  1.00  0.00     0.202 C 
ATOM     15  C   UNL     1      29.589  36.121 -46.012  1.00  0.00     0.041 C 
BRANCH  11  16
ATOM     16  O   UNL     1      27.056  35.257 -44.642  1.00  0.00    -0.388 OA
ATOM     17  H   UNL     1      27.914  35.562 -44.287  1.00  0.00     0.211 HD
ENDBRANCH  11  16
BRANCH  13  18
ATOM     18  O   UNL     1      24.843  34.736 -46.404  1.00  0.00    -0.387 OA
ATOM     19  H   UNL     1      24.902  35.250 -45.573  1.00  0.00     0.211 HD
ENDBRANCH  13  18
BRANCH  14  20
ATOM     20  O   UNL     1      25.838  35.677 -48.757  1.00  0.00    -0.385 OA
ATOM     21  H   UNL     1      24.870  35.543 -48.821  1.00  0.00     0.211 HD
ENDBRANCH  14  20
ENDBRANCH   8   9
ENDBRANCH   7   8
ENDBRANCH   1   7
BRANCH   2  22
ATOM     22  O   UNL     1      30.112  30.590 -47.235  1.00  0.00    -0.387 OA
ATOM     23  H   UNL     1      30.573  30.044 -47.905  1.00  0.00     0.211 HD
ENDBRANCH   2  22
BRANCH   3  24
ATOM     24  O   UNL     1      32.068  31.674 -45.489  1.00  0.00    -0.387 OA
ATOM     25  H   UNL     1      32.506  30.802 -45.407  1.00  0.00     0.211 HD
ENDBRANCH   3  24
BRANCH   5  26
ATOM     26  O   UNL     1      33.083  34.990 -48.807  1.00  0.00    -0.347 OA
BRANCH  26  27
ATOM     27  C   UNL     1      32.215  36.046 -48.379  1.00  0.00     0.200 C 
BRANCH  27  28
ATOM     28  C   UNL     1      31.553  36.876 -49.500  1.00  0.00     0.170 C 
BRANCH  28  29
ATOM     29  C   UNL     1      30.885  38.187 -49.127  1.00  0.00    -0.013 A 
ATOM     30  C   UNL     1      29.498  38.312 -49.338  1.00  0.00     0.056 A 
ATOM     31  C   UNL     1      31.581  39.295 -48.615  1.00  0.00     0.010 A 
ATOM     32  C   UNL     1      28.837  39.491 -49.010  1.00  0.00     0.157 A 
ATOM     33  C   UNL     1      30.914  40.487 -48.307  1.00  0.00     0.050 A 
ATOM     34  C   UNL     1      29.546  40.574 -48.507  1.00  0.00     0.157 A 
BRANCH  32  35
ATOM     35  O   UNL     1      27.481  39.614 -49.144  1.00  0.00    -0.504 OA
ATOM     36  H   UNL     1      27.307  40.426 -49.674  1.00  0.00     0.293 HD
ENDBRANCH  32  35
BRANCH  34  37
ATOM     37  O   UNL     1      28.897  41.733 -48.196  1.00  0.00    -0.504 OA
ATOM     38  H   UNL     1      29.547  42.244 -47.672  1.00  0.00     0.293 HD
ENDBRANCH  34  37
ENDBRANCH  28  29
BRANCH  28  39
ATOM     39  O   UNL     1      30.634  36.056 -50.228  1.00  0.00    -0.386 OA
ATOM     40  H   UNL     1      30.088  36.668 -50.767  1.00  0.00     0.211 HD
ENDBRANCH  28  39
ENDBRANCH  27  28
ENDBRANCH  26  27
ENDBRANCH   5  26
BRANCH   4  41
ATOM     41  O   UNL     1      34.053  33.309 -46.745  1.00  0.00    -0.385 OA
ATOM     42  H   UNL     1      34.470  34.065 -47.204  1.00  0.00     0.211 HD
ENDBRANCH   4  41
TORSDOF 16
ENDMDL
MODEL 3
REMARK VINA RESULT:    -6.017      2.734      8.925
REMARK INTER + INTRA:         -11.941
REMARK INTER:                 -10.545
REMARK INTRA:                  -1.396
REMARK UNBOUND:                -1.880
REMARK SMILES C[C@@H]1O[C@@H](OC[C@H]2O[C@@H](OCC(O)c3ccc(O)c(O)c3)[C@H](O)[C@@H](O)[C@@H]2O)[C@H](O)[C@H](O)[C@H]1O
REMARK SMILES IDX 7 1 26 2 24 3 22 4 9 5 8 6 6 7 5 8 4 9 2 10 32 11 3 12 30 13
REMARK SMILES IDX 28 14 1 15 33 16 31 18 29 20 27 22 25 24 10 26 11 27 12 28
REMARK SMILES IDX 14 29 21 30 15 31 19 32 16 33 17 34 20 35 18 37 13 39 23 41
REMARK H PARENT 33 17 31 19 29 21 27 23 25 25 20 36 18 38 13 40 23 42
ROOT
ATOM      1  C   UNL     1      29.784  39.080 -51.084  1.00  0.00     0.178 C 
ATOM      2  C   UNL     1      28.950  39.930 -50.115  1.00  0.00     0.177 C 
ATOM      3  C   UNL     1      28.546  39.090 -48.904  1.00  0.00     0.179 C 
ATOM      4  C   UNL     1      29.775  38.453 -48.267  1.00  0.00     0.202 C 
ATOM      5  C   UNL     1      30.559  37.663 -49.331  1.00  0.00     0.282 C 
ATOM      6  O   UNL     1      30.934  38.526 -50.407  1.00  0.00    -0.341 OA
ENDROOT
BRANCH   1   7
ATOM      7  C   UNL     1      30.266  39.932 -52.269  1.00  0.00     0.198 C 
BRANCH   7   8
ATOM      8  O   UNL     1      30.098  41.318 -51.946  1.00  0.00    -0.347 OA
BRANCH   8   9
ATOM      9  C   UNL     1      31.321  42.057 -52.004  1.00  0.00     0.281 C 
ATOM     10  C   UNL     1      30.270  44.109 -51.344  1.00  0.00     0.150 C 
ATOM     11  C   UNL     1      30.538  44.765 -52.709  1.00  0.00     0.174 C 
ATOM     12  O   UNL     1      31.265  43.128 -51.047  1.00  0.00    -0.344 OA
ATOM     13  C   UNL     1      30.606  43.678 -53.791  1.00  0.00     0.179 C 
ATOM     14  C   UNL     1      31.618  42.594 -53.420  1.00  0.00     0.202 C 
ATOM     15  C   UNL     1      30.292  45.130 -50.212  1.00  0.00     0.041 C 
BRANCH  11  16
ATOM     16  O   UNL     1      29.514  45.719 -53.056  1.00  0.00    -0.388 OA
ATOM     17  H   UNL     1      28.794  45.196 -53.459  1.00  0.00     0.211 HD
ENDBRANCH  11  16
BRANCH  13  18
ATOM     18  O   UNL     1      31.000  44.267 -55.044  1.00  0.00    -0.387 OA
ATOM     19  H   UNL     1      31.929  44.547 -54.923  1.00  0.00     0.211 HD
ENDBRANCH  13  18
BRANCH  14  20
ATOM     20  O   UNL     1      32.944  43.145 -53.503  1.00  0.00    -0.385 OA
ATOM     21  H   UNL     1      33.219  42.987 -54.430  1.00  0.00     0.211 HD
ENDBRANCH  14  20
ENDBRANCH   8   9
ENDBRANCH   7   8
ENDBRANCH   1   7
BRANCH   2  22
ATOM     22  O   UNL     1      27.771  40.432 -50.748  1.00  0.00    -0.387 OA
ATOM     23  H   UNL     1      27.591  39.812 -51.484  1.00  0.00     0.211 HD
ENDBRANCH   2  22
BRANCH   3  24
ATOM     24  O   UNL     1      27.868  39.930 -47.957  1.00  0.00    -0.387 OA
ATOM     25  H   UNL     1      27.807  39.394 -47.140  1.00  0.00     0.211 HD
ENDBRANCH   3  24
BRANCH   5  26
ATOM     26  O   UNL     1      31.722  37.158 -48.667  1.00  0.00    -0.347 OA
BRANCH  26  27
ATOM     27  C   UNL     1      32.069  35.809 -49.001  1.00  0.00     0.200 C 
BRANCH  27  28
ATOM     28  C   UNL     1      32.030  34.793 -47.839  1.00  0.00     0.170 C 
BRANCH  28  29
ATOM     29  C   UNL     1      31.492  33.401 -48.117  1.00  0.00    -0.013 A 
ATOM     30  C   UNL     1      31.671  32.408 -47.134  1.00  0.00     0.056 A 
ATOM     31  C   UNL     1      30.856  33.039 -49.317  1.00  0.00     0.010 A 
ATOM     32  C   UNL     1      31.195  31.118 -47.338  1.00  0.00     0.157 A 
ATOM     33  C   UNL     1      30.397  31.733 -49.525  1.00  0.00     0.050 A 
ATOM     34  C   UNL     1      30.570  30.783 -48.532  1.00  0.00     0.157 A 
BRANCH  32  35
ATOM     35  O   UNL     1      31.298  30.154 -46.372  1.00  0.00    -0.504 OA
ATOM     36  H   UNL     1      30.463  29.631 -46.382  1.00  0.00     0.293 HD
ENDBRANCH  32  35
BRANCH  34  37
ATOM     37  O   UNL     1      30.112  29.513 -48.734  1.00  0.00    -0.504 OA
ATOM     38  H   UNL     1      30.029  29.436 -49.706  1.00  0.00     0.293 HD
ENDBRANCH  34  37
ENDBRANCH  28  29
BRANCH  28  39
ATOM     39  O   UNL     1      31.340  35.363 -46.723  1.00  0.00    -0.386 OA
ATOM     40  H   UNL     1      30.455  34.940 -46.703  1.00  0.00     0.211 HD
ENDBRANCH  28  39
ENDBRANCH  27  28
ENDBRANCH  26  27
ENDBRANCH   5  26
BRANCH   4  41
ATOM     41  O   UNL     1      29.350  37.606 -47.187  1.00  0.00    -0.385 OA
ATOM     42  H   UNL     1      29.885  37.884 -46.418  1.00  0.00     0.211 HD
ENDBRANCH   4  41
TORSDOF 16
ENDMDL
MODEL 4
REMARK VINA RESULT:    -5.999      2.085      3.449
REMARK INTER + INTRA:         -11.911
REMARK INTER:                  -9.643
REMARK INTRA:                  -2.269
REMARK UNBOUND:                -1.880
REMARK SMILES C[C@@H]1O[C@@H](OC[C@H]2O[C@@H](OCC(O)c3ccc(O)c(O)c3)[C@H](O)[C@@H](O)[C@@H]2O)[C@H](O)[C@H](O)[C@H]1O
REMARK SMILES IDX 7 1 26 2 24 3 22 4 9 5 8 6 6 7 5 8 4 9 2 10 32 11 3 12 30 13
REMARK SMILES IDX 28 14 1 15 33 16 31 18 29 20 27 22 25 24 10 26 11 27 12 28
REMARK SMILES IDX 14 29 21 30 15 31 19 32 16 33 17 34 20 35 18 37 13 39 23 41
REMARK H PARENT 33 17 31 19 29 21 27 23 25 25 20 36 18 38 13 40 23 42
ROOT
ATOM      1  C   UNL     1      28.904  32.016 -49.277  1.00  0.00     0.178 C 
ATOM      2  C   UNL     1      28.176  31.174 -48.219  1.00  0.00     0.177 C 
ATOM      3  C   UNL     1      29.156  30.201 -47.567  1.00  0.00     0.179 C 
ATOM      4  C   UNL     1      30.371  30.950 -47.032  1.00  0.00     0.202 C 
ATOM      5  C   UNL     1      30.997  31.793 -48.159  1.00  0.00     0.282 C 
ATOM      6  O   UNL     1      30.030  32.703 -48.688  1.00  0.00    -0.341 OA
ENDROOT
BRANCH   1   7
ATOM      7  C   UNL     1      27.950  33.055 -49.888  1.00  0.00     0.198 C 
BRANCH   7   8
ATOM      8  O   UNL     1      27.210  33.685 -48.835  1.00  0.00    -0.347 OA
BRANCH   8   9
ATOM      9  C   UNL     1      27.407  35.101 -48.782  1.00  0.00     0.281 C 
ATOM     10  C   UNL     1      28.460  35.012 -46.631  1.00  0.00     0.150 C 
ATOM     11  C   UNL     1      27.307  35.777 -45.959  1.00  0.00     0.174 C 
ATOM     12  O   UNL     1      28.583  35.380 -48.005  1.00  0.00    -0.344 OA
ATOM     13  C   UNL     1      26.007  35.521 -46.734  1.00  0.00     0.179 C 
ATOM     14  C   UNL     1      26.179  35.845 -48.218  1.00  0.00     0.202 C 
ATOM     15  C   UNL     1      29.799  35.308 -45.963  1.00  0.00     0.041 C 
BRANCH  11  16
ATOM     16  O   UNL     1      27.129  35.379 -44.585  1.00  0.00    -0.388 OA
ATOM     17  H   UNL     1      27.281  36.186 -44.056  1.00  0.00     0.211 HD
ENDBRANCH  11  16
BRANCH  13  18
ATOM     18  O   UNL     1      24.956  36.347 -46.201  1.00  0.00    -0.387 OA
ATOM     19  H   UNL     1      24.302  35.727 -45.819  1.00  0.00     0.211 HD
ENDBRANCH  13  18
BRANCH  14  20
ATOM     20  O   UNL     1      26.314  37.269 -48.373  1.00  0.00    -0.385 OA
ATOM     21  H   UNL     1      27.270  37.410 -48.534  1.00  0.00     0.211 HD
ENDBRANCH  14  20
ENDBRANCH   8   9
ENDBRANCH   7   8
ENDBRANCH   1   7
BRANCH   2  22
ATOM     22  O   UNL     1      27.099  30.434 -48.798  1.00  0.00    -0.387 OA
ATOM     23  H   UNL     1      26.859  30.922 -49.612  1.00  0.00     0.211 HD
ENDBRANCH   2  22
BRANCH   3  24
ATOM     24  O   UNL     1      28.487  29.506 -46.503  1.00  0.00    -0.387 OA
ATOM     25  H   UNL     1      27.756  29.021 -46.937  1.00  0.00     0.211 HD
ENDBRANCH   3  24
BRANCH   5  26
ATOM     26  O   UNL     1      32.080  32.509 -47.558  1.00  0.00    -0.347 OA
BRANCH  26  27
ATOM     27  C   UNL     1      32.780  33.396 -48.439  1.00  0.00     0.200 C 
BRANCH  27  28
ATOM     28  C   UNL     1      32.749  34.892 -48.059  1.00  0.00     0.170 C 
BRANCH  28  29
ATOM     29  C   UNL     1      31.934  35.838 -48.923  1.00  0.00    -0.013 A 
ATOM     30  C   UNL     1      31.391  35.342 -50.125  1.00  0.00     0.056 A 
ATOM     31  C   UNL     1      31.721  37.191 -48.608  1.00  0.00     0.010 A 
ATOM     32  C   UNL     1      30.635  36.165 -50.951  1.00  0.00     0.157 A 
ATOM     33  C   UNL     1      30.977  38.020 -49.454  1.00  0.00     0.050 A 
ATOM     34  C   UNL     1      30.439  37.499 -50.619  1.00  0.00     0.157 A 
BRANCH  32  35
ATOM     35  O   UNL     1      30.043  35.691 -52.090  1.00  0.00    -0.504 OA
ATOM     36  H   UNL     1      30.740  35.623 -52.782  1.00  0.00     0.293 HD
ENDBRANCH  32  35
BRANCH  34  37
ATOM     37  O   UNL     1      29.705  38.309 -51.437  1.00  0.00    -0.504 OA
ATOM     38  H   UNL     1      30.371  38.781 -51.975  1.00  0.00     0.293 HD
ENDBRANCH  34  37
ENDBRANCH  28  29
BRANCH  28  39
ATOM     39  O   UNL     1      34.086  35.385 -47.931  1.00  0.00    -0.386 OA
ATOM     40  H   UNL     1      34.426  35.037 -47.079  1.00  0.00     0.211 HD
ENDBRANCH  28  39
ENDBRANCH  27  28
ENDBRANCH  26  27
ENDBRANCH   5  26
BRANCH   4  41
ATOM     41  O   UNL     1      31.307  29.998 -46.503  1.00  0.00    -0.385 OA
ATOM     42  H   UNL     1      31.337  30.176 -45.542  1.00  0.00     0.211 HD
ENDBRANCH   4  41
TORSDOF 16
ENDMDL
MODEL 5
REMARK VINA RESULT:    -5.994      1.838      7.213
REMARK INTER + INTRA:         -11.904
REMARK INTER:                 -10.325
REMARK INTRA:                  -1.579
REMARK UNBOUND:                -1.880
REMARK SMILES C[C@@H]1O[C@@H](OC[C@H]2O[C@@H](OCC(O)c3ccc(O)c(O)c3)[C@H](O)[C@@H](O)[C@@H]2O)[C@H](O)[C@H](O)[C@H]1O
REMARK SMILES IDX 7 1 26 2 24 3 22 4 9 5 8 6 6 7 5 8 4 9 2 10 32 11 3 12 30 13
REMARK SMILES IDX 28 14 1 15 33 16 31 18 29 20 27 22 25 24 10 26 11 27 12 28
REMARK SMILES IDX 14 29 21 30 15 31 19 32 16 33 17 34 20 35 18 37 13 39 23 41
REMARK H PARENT 33 17 31 19 29 21 27 23 25 25 20 36 18 38 13 40 23 42
ROOT
ATOM      1  C   UNL     1      27.333  36.397 -49.017  1.00  0.00     0.178 C 
ATOM      2  C   UNL     1      26.503  37.381 -48.180  1.00  0.00     0.177 C 
ATOM      3  C   UNL     1      26.142  36.745 -46.839  1.00  0.00     0.179 C 
ATOM      4  C   UNL     1      27.397  36.240 -46.137  1.00  0.00     0.202 C 
ATOM      5  C   UNL     1      28.173  35.298 -47.077  1.00  0.00     0.282 C 
ATOM      6  O   UNL     1      28.507  35.979 -48.288  1.00  0.00    -0.341 OA
ENDROOT
BRANCH   1   7
ATOM      7  C   UNL     1      27.771  37.050 -50.338  1.00  0.00     0.198 C 
BRANCH   7   8
ATOM      8  O   UNL     1      27.764  38.474 -50.179  1.00  0.00    -0.347 OA
BRANCH   8   9
ATOM      9  C   UNL     1      28.788  39.127 -50.933  1.00  0.00     0.281 C 
ATOM     10  C   UNL     1      30.394  38.952 -49.162  1.00  0.00     0.150 C 
ATOM     11  C   UNL     1      30.441  40.476 -48.961  1.00  0.00     0.174 C 
ATOM     12  O   UNL     1      30.068  38.626 -50.514  1.00  0.00    -0.344 OA
ATOM     13  C   UNL     1      29.097  41.086 -49.385  1.00  0.00     0.179 C 
ATOM     14  C   UNL     1      28.725  40.664 -50.806  1.00  0.00     0.202 C 
ATOM     15  C   UNL     1      31.737  38.299 -48.853  1.00  0.00     0.041 C 
BRANCH  11  16
ATOM     16  O   UNL     1      30.713  40.828 -47.590  1.00  0.00    -0.388 OA
ATOM     17  H   UNL     1      29.922  41.311 -47.281  1.00  0.00     0.211 HD
ENDBRANCH  11  16
BRANCH  13  18
ATOM     18  O   UNL     1      29.182  42.522 -49.338  1.00  0.00    -0.387 OA
ATOM     19  H   UNL     1      28.982  42.828 -50.246  1.00  0.00     0.211 HD
ENDBRANCH  13  18
BRANCH  14  20
ATOM     20  O   UNL     1      29.619  41.303 -51.733  1.00  0.00    -0.385 OA
ATOM     21  H   UNL     1      30.465  41.383 -51.245  1.00  0.00     0.211 HD
ENDBRANCH  14  20
ENDBRANCH   8   9
ENDBRANCH   7   8
ENDBRANCH   1   7
BRANCH   2  22
ATOM     22  O   UNL     1      25.302  37.754 -48.858  1.00  0.00    -0.387 OA
ATOM     23  H   UNL     1      24.592  37.231 -48.430  1.00  0.00     0.211 HD
ENDBRANCH   2  22
BRANCH   3  24
ATOM     24  O   UNL     1      25.469  37.718 -46.026  1.00  0.00    -0.387 OA
ATOM     25  H   UNL     1      25.037  37.201 -45.315  1.00  0.00     0.211 HD
ENDBRANCH   3  24
BRANCH   5  26
ATOM     26  O   UNL     1      29.360  34.928 -46.368  1.00  0.00    -0.347 OA
BRANCH  26  27
ATOM     27  C   UNL     1      30.548  35.613 -46.782  1.00  0.00     0.200 C 
BRANCH  27  28
ATOM     28  C   UNL     1      31.508  34.814 -47.691  1.00  0.00     0.170 C 
BRANCH  28  29
ATOM     29  C   UNL     1      31.143  33.384 -48.044  1.00  0.00    -0.013 A 
ATOM     30  C   UNL     1      31.439  32.370 -47.111  1.00  0.00     0.056 A 
ATOM     31  C   UNL     1      30.556  33.010 -49.265  1.00  0.00     0.010 A 
ATOM     32  C   UNL     1      31.122  31.044 -47.383  1.00  0.00     0.157 A 
ATOM     33  C   UNL     1      30.259  31.671 -49.543  1.00  0.00     0.050 A 
ATOM     34  C   UNL     1      30.544  30.698 -48.597  1.00  0.00     0.157 A 
BRANCH  32  35
ATOM     35  O   UNL     1      31.339  30.052 -46.467  1.00  0.00    -0.504 OA
ATOM     36  H   UNL     1      32.293  30.077 -46.221  1.00  0.00     0.293 HD
ENDBRANCH  32  35
BRANCH  34  37
ATOM     37  O   UNL     1      30.244  29.395 -48.867  1.00  0.00    -0.504 OA
ATOM     38  H   UNL     1      29.279  29.330 -48.716  1.00  0.00     0.293 HD
ENDBRANCH  34  37
ENDBRANCH  28  29
BRANCH  28  39
ATOM     39  O   UNL     1      32.831  34.855 -47.148  1.00  0.00    -0.386 OA
ATOM     40  H   UNL     1      32.833  34.239 -46.384  1.00  0.00     0.211 HD
ENDBRANCH  28  39
ENDBRANCH  27  28
ENDBRANCH  26  27
ENDBRANCH   5  26
BRANCH   4  41
ATOM     41  O   UNL     1      27.013  35.575 -44.923  1.00  0.00    -0.385 OA
ATOM     42  H   UNL     1      27.064  34.620 -45.127  1.00  0.00     0.211 HD
ENDBRANCH   4  41
TORSDOF 16
ENDMDL
MODEL 6
REMARK VINA RESULT:    -5.969      1.730      2.915
REMARK INTER + INTRA:         -11.861
REMARK INTER:                  -9.786
REMARK INTRA:                  -2.075
REMARK UNBOUND:                -1.880
REMARK SMILES C[C@@H]1O[C@@H](OC[C@H]2O[C@@H](OCC(O)c3ccc(O)c(O)c3)[C@H](O)[C@@H](O)[C@@H]2O)[C@H](O)[C@H](O)[C@H]1O
REMARK SMILES IDX 7 1 26 2 24 3 22 4 9 5 8 6 6 7 5 8 4 9 2 10 32 11 3 12 30 13
REMARK SMILES IDX 28 14 1 15 33 16 31 18 29 20 27 22 25 24 10 26 11 27 12 28
REMARK SMILES IDX 14 29 21 30 15 31 19 32 16 33 17 34 20 35 18 37 13 39 23 41
REMARK H PARENT 33 17 31 19 29 21 27 23 25 25 20 36 18 38 13 40 23 42
ROOT
ATOM      1  C   UNL     1      28.526  31.634 -48.677  1.00  0.00     0.178 C 
ATOM      2  C   UNL     1      28.225  30.416 -47.792  1.00  0.00     0.177 C 
ATOM      3  C   UNL     1      29.532  29.750 -47.364  1.00  0.00     0.179 C 
ATOM      4  C   UNL     1      30.460  30.771 -46.718  1.00  0.00     0.202 C 
ATOM      5  C   UNL     1      30.659  31.966 -47.669  1.00  0.00     0.282 C 
ATOM      6  O   UNL     1      29.398  32.556 -47.988  1.00  0.00    -0.341 OA
ENDROOT
BRANCH   1   7
ATOM      7  C   UNL     1      27.225  32.362 -49.052  1.00  0.00     0.198 C 
BRANCH   7   8
ATOM      8  O   UNL     1      27.428  33.774 -48.926  1.00  0.00    -0.347 OA
BRANCH   8   9
ATOM      9  C   UNL     1      26.286  34.459 -48.404  1.00  0.00     0.281 C 
ATOM     10  C   UNL     1      27.388  36.589 -48.416  1.00  0.00     0.150 C 
ATOM     11  C   UNL     1      27.366  36.685 -46.881  1.00  0.00     0.174 C 
ATOM     12  O   UNL     1      26.289  35.811 -48.893  1.00  0.00    -0.344 OA
ATOM     13  C   UNL     1      27.368  35.271 -46.282  1.00  0.00     0.179 C 
ATOM     14  C   UNL     1      26.233  34.427 -46.862  1.00  0.00     0.202 C 
ATOM     15  C   UNL     1      27.285  37.962 -49.070  1.00  0.00     0.041 C 
BRANCH  11  16
ATOM     16  O   UNL     1      28.499  37.419 -46.373  1.00  0.00    -0.388 OA
ATOM     17  H   UNL     1      28.797  36.927 -45.584  1.00  0.00     0.211 HD
ENDBRANCH  11  16
BRANCH  13  18
ATOM     18  O   UNL     1      27.201  35.350 -44.855  1.00  0.00    -0.387 OA
ATOM     19  H   UNL     1      26.502  34.701 -44.635  1.00  0.00     0.211 HD
ENDBRANCH  13  18
BRANCH  14  20
ATOM     20  O   UNL     1      24.978  34.929 -46.371  1.00  0.00    -0.385 OA
ATOM     21  H   UNL     1      25.030  34.815 -45.399  1.00  0.00     0.211 HD
ENDBRANCH  14  20
ENDBRANCH   8   9
ENDBRANCH   7   8
ENDBRANCH   1   7
BRANCH   2  22
ATOM     22  O   UNL     1      27.419  29.459 -48.483  1.00  0.00    -0.387 OA
ATOM     23  H   UNL     1      26.633  29.958 -48.788  1.00  0.00     0.211 HD
ENDBRANCH   2  22
BRANCH   3  24
ATOM     24  O   UNL     1      29.236  28.687 -46.446  1.00  0.00    -0.387 OA
ATOM     25  H   UNL     1      29.722  27.910 -46.791  1.00  0.00     0.211 HD
ENDBRANCH   3  24
BRANCH   5  26
ATOM     26  O   UNL     1      31.482  32.898 -46.961  1.00  0.00    -0.347 OA
BRANCH  26  27
ATOM     27  C   UNL     1      30.944  34.222 -46.859  1.00  0.00     0.200 C 
BRANCH  27  28
ATOM     28  C   UNL     1      31.843  35.361 -47.386  1.00  0.00     0.170 C 
BRANCH  28  29
ATOM     29  C   UNL     1      31.414  36.094 -48.644  1.00  0.00    -0.013 A 
ATOM     30  C   UNL     1      31.225  37.488 -48.572  1.00  0.00     0.056 A 
ATOM     31  C   UNL     1      31.161  35.453 -49.869  1.00  0.00     0.010 A 
ATOM     32  C   UNL     1      30.836  38.208 -49.696  1.00  0.00     0.157 A 
ATOM     33  C   UNL     1      30.749  36.179 -50.992  1.00  0.00     0.050 A 
ATOM     34  C   UNL     1      30.591  37.552 -50.896  1.00  0.00     0.157 A 
BRANCH  32  35
ATOM     35  O   UNL     1      30.710  39.570 -49.669  1.00  0.00    -0.504 OA
ATOM     36  H   UNL     1      30.826  39.861 -48.735  1.00  0.00     0.293 HD
ENDBRANCH  32  35
BRANCH  34  37
ATOM     37  O   UNL     1      30.198  38.259 -51.996  1.00  0.00    -0.504 OA
ATOM     38  H   UNL     1      30.848  38.018 -52.685  1.00  0.00     0.293 HD
ENDBRANCH  34  37
ENDBRANCH  28  29
BRANCH  28  39
ATOM     39  O   UNL     1      33.184  34.886 -47.537  1.00  0.00    -0.386 OA
ATOM     40  H   UNL     1      33.472  35.157 -48.435  1.00  0.00     0.211 HD
ENDBRANCH  28  39
ENDBRANCH  27  28
ENDBRANCH  26  27
ENDBRANCH   5  26
BRANCH   4  41
ATOM     41  O   UNL     1      31.708  30.131 -46.406  1.00  0.00    -0.385 OA
ATOM     42  H   UNL     1      31.871  30.334 -45.463  1.00  0.00     0.211 HD
ENDBRANCH   4  41
TORSDOF 16
ENDMDL
MODEL 7
REMARK VINA RESULT:    -5.945      3.356      8.050
REMARK INTER + INTRA:         -11.821
REMARK INTER:                 -10.108
REMARK INTRA:                  -1.713
REMARK UNBOUND:                -1.880
REMARK SMILES C[C@@H]1O[C@@H](OC[C@H]2O[C@@H](OCC(O)c3ccc(O)c(O)c3)[C@H](O)[C@@H](O)[C@@H]2O)[C@H](O)[C@H](O)[C@H]1O
REMARK SMILES IDX 7 1 26 2 24 3 22 4 9 5 8 6 6 7 5 8 4 9 2 10 32 11 3 12 30 13
REMARK SMILES IDX 28 14 1 15 33 16 31 18 29 20 27 22 25 24 10 26 11 27 12 28
REMARK SMILES IDX 14 29 21 30 15 31 19 32 16 33 17 34 20 35 18 37 13 39 23 41
REMARK H PARENT 33 17 31 19 29 21 27 23 25 25 20 36 18 38 13 40 23 42
ROOT
ATOM      1  C   UNL     1      30.598  40.517 -54.043  1.00  0.00     0.178 C 
ATOM      2  C   UNL     1      31.757  41.494 -54.289  1.00  0.00     0.177 C 
ATOM      3  C   UNL     1      31.620  42.703 -53.367  1.00  0.00     0.179 C 
ATOM      4  C   UNL     1      31.488  42.252 -51.917  1.00  0.00     0.202 C 
ATOM      5  C   UNL     1      30.328  41.247 -51.791  1.00  0.00     0.282 C 
ATOM      6  O   UNL     1      30.551  40.129 -52.653  1.00  0.00    -0.341 OA
ENDROOT
BRANCH   1   7
ATOM      7  C   UNL     1      30.764  39.256 -54.908  1.00  0.00     0.198 C 
BRANCH   7   8
ATOM      8  O   UNL     1      30.660  38.099 -54.069  1.00  0.00    -0.347 OA
BRANCH   8   9
ATOM      9  C   UNL     1      29.571  37.244 -54.427  1.00  0.00     0.281 C 
ATOM     10  C   UNL     1      29.422  36.289 -52.233  1.00  0.00     0.150 C 
ATOM     11  C   UNL     1      29.856  34.901 -52.733  1.00  0.00     0.174 C 
ATOM     12  O   UNL     1      28.755  37.017 -53.266  1.00  0.00    -0.344 OA
ATOM     13  C   UNL     1      30.742  35.063 -53.977  1.00  0.00     0.179 C 
ATOM     14  C   UNL     1      30.046  35.911 -55.041  1.00  0.00     0.202 C 
ATOM     15  C   UNL     1      28.456  36.189 -51.057  1.00  0.00     0.041 C 
BRANCH  11  16
ATOM     16  O   UNL     1      30.582  34.170 -51.724  1.00  0.00    -0.388 OA
ATOM     17  H   UNL     1      29.908  33.660 -51.234  1.00  0.00     0.211 HD
ENDBRANCH  11  16
BRANCH  13  18
ATOM     18  O   UNL     1      31.033  33.769 -54.535  1.00  0.00    -0.387 OA
ATOM     19  H   UNL     1      31.750  33.398 -53.983  1.00  0.00     0.211 HD
ENDBRANCH  13  18
BRANCH  14  20
ATOM     20  O   UNL     1      28.944  35.164 -55.586  1.00  0.00    -0.385 OA
ATOM     21  H   UNL     1      29.060  35.226 -56.557  1.00  0.00     0.211 HD
ENDBRANCH  14  20
ENDBRANCH   8   9
ENDBRANCH   7   8
ENDBRANCH   1   7
BRANCH   2  22
ATOM     22  O   UNL     1      31.778  41.941 -55.646  1.00  0.00    -0.387 OA
ATOM     23  H   UNL     1      32.130  41.186 -56.161  1.00  0.00     0.211 HD
ENDBRANCH   2  22
BRANCH   3  24
ATOM     24  O   UNL     1      32.771  43.547 -53.527  1.00  0.00    -0.387 OA
ATOM     25  H   UNL     1      32.586  44.080 -54.328  1.00  0.00     0.211 HD
ENDBRANCH   3  24
BRANCH   5  26
ATOM     26  O   UNL     1      30.319  40.829 -50.422  1.00  0.00    -0.347 OA
BRANCH  26  27
ATOM     27  C   UNL     1      30.147  39.420 -50.223  1.00  0.00     0.200 C 
BRANCH  27  28
ATOM     28  C   UNL     1      30.052  38.950 -48.756  1.00  0.00     0.170 C 
BRANCH  28  29
ATOM     29  C   UNL     1      30.629  37.593 -48.395  1.00  0.00    -0.013 A 
ATOM     30  C   UNL     1      30.188  36.975 -47.209  1.00  0.00     0.056 A 
ATOM     31  C   UNL     1      31.605  36.935 -49.163  1.00  0.00     0.010 A 
ATOM     32  C   UNL     1      30.682  35.731 -46.834  1.00  0.00     0.157 A 
ATOM     33  C   UNL     1      32.115  35.692 -48.770  1.00  0.00     0.050 A 
ATOM     34  C   UNL     1      31.647  35.100 -47.608  1.00  0.00     0.157 A 
BRANCH  32  35
ATOM     35  O   UNL     1      30.222  35.080 -45.722  1.00  0.00    -0.504 OA
ATOM     36  H   UNL     1      30.827  35.302 -44.976  1.00  0.00     0.293 HD
ENDBRANCH  32  35
BRANCH  34  37
ATOM     37  O   UNL     1      32.140  33.883 -47.233  1.00  0.00    -0.504 OA
ATOM     38  H   UNL     1      31.352  33.380 -46.943  1.00  0.00     0.293 HD
ENDBRANCH  34  37
ENDBRANCH  28  29
BRANCH  28  39
ATOM     39  O   UNL     1      28.695  39.031 -48.311  1.00  0.00    -0.386 OA
ATOM     40  H   UNL     1      28.281  38.169 -48.532  1.00  0.00     0.211 HD
ENDBRANCH  28  39
ENDBRANCH  27  28
ENDBRANCH  26  27
ENDBRANCH   5  26
BRANCH   4  41
ATOM     41  O   UNL     1      31.277  43.408 -51.090  1.00  0.00    -0.385 OA
ATOM     42  H   UNL     1      30.856  43.067 -50.276  1.00  0.00     0.211 HD
ENDBRANCH   4  41
TORSDOF 16
ENDMDL
MODEL 8
REMARK VINA RESULT:    -5.902      2.620      7.595
REMARK INTER + INTRA:         -11.749
REMARK INTER:                  -9.681
REMARK INTRA:                  -2.069
REMARK UNBOUND:                -1.880
REMARK SMILES C[C@@H]1O[C@@H](OC[C@H]2O[C@@H](OCC(O)c3ccc(O)c(O)c3)[C@H](O)[C@@H](O)[C@@H]2O)[C@H](O)[C@H](O)[C@H]1O
REMARK SMILES IDX 7 1 26 2 24 3 22 4 9 5 8 6 6 7 5 8 4 9 2 10 32 11 3 12 30 13
REMARK SMILES IDX 28 14 1 15 33 16 31 18 29 20 27 22 25 24 10 26 11 27 12 28
REMARK SMILES IDX 14 29 21 30 15 31 19 32 16 33 17 34 20 35 18 37 13 39 23 41
REMARK H PARENT 33 17 31 19 29 21 27 23 25 25 20 36 18 38 13 40 23 42
ROOT
ATOM      1  C   UNL     1      24.680  39.037 -49.096  1.00  0.00     0.178 C 
ATOM      2  C   UNL     1      24.487  40.443 -48.510  1.00  0.00     0.177 C 
ATOM      3  C   UNL     1      23.888  40.343 -47.108  1.00  0.00     0.179 C 
ATOM      4  C   UNL     1      24.731  39.420 -46.237  1.00  0.00     0.202 C 
ATOM      5  C   UNL     1      24.897  38.057 -46.935  1.00  0.00     0.282 C 
ATOM      6  O   UNL     1      25.498  38.233 -48.219  1.00  0.00    -0.341 OA
ENDROOT
BRANCH   1   7
ATOM      7  C   UNL     1      25.354  39.116 -50.475  1.00  0.00     0.198 C 
BRANCH   7   8
ATOM      8  O   UNL     1      26.613  38.433 -50.419  1.00  0.00    -0.347 OA
BRANCH   8   9
ATOM      9  C   UNL     1      27.694  39.208 -50.942  1.00  0.00     0.281 C 
ATOM     10  C   UNL     1      29.351  37.958 -49.742  1.00  0.00     0.150 C 
ATOM     11  C   UNL     1      29.731  39.167 -48.870  1.00  0.00     0.174 C 
ATOM     12  O   UNL     1      28.868  38.382 -51.018  1.00  0.00    -0.344 OA
ATOM     13  C   UNL     1      28.518  40.099 -48.737  1.00  0.00     0.179 C 
ATOM     14  C   UNL     1      27.964  40.480 -50.110  1.00  0.00     0.202 C 
ATOM     15  C   UNL     1      30.546  37.045 -49.994  1.00  0.00     0.041 C 
BRANCH  11  16
ATOM     16  O   UNL     1      30.168  38.764 -47.557  1.00  0.00    -0.388 OA
ATOM     17  H   UNL     1      31.125  38.958 -47.528  1.00  0.00     0.211 HD
ENDBRANCH  11  16
BRANCH  13  18
ATOM     18  O   UNL     1      28.905  41.301 -48.047  1.00  0.00    -0.387 OA
ATOM     19  H   UNL     1      29.714  41.069 -47.547  1.00  0.00     0.211 HD
ENDBRANCH  13  18
BRANCH  14  20
ATOM     20  O   UNL     1      28.904  41.347 -50.770  1.00  0.00    -0.385 OA
ATOM     21  H   UNL     1      29.707  40.798 -50.883  1.00  0.00     0.211 HD
ENDBRANCH  14  20
ENDBRANCH   8   9
ENDBRANCH   7   8
ENDBRANCH   1   7
BRANCH   2  22
ATOM     22  O   UNL     1      23.624  41.233 -49.331  1.00  0.00    -0.387 OA
ATOM     23  H   UNL     1      23.152  41.827 -48.711  1.00  0.00     0.211 HD
ENDBRANCH   2  22
BRANCH   3  24
ATOM     24  O   UNL     1      23.824  41.657 -46.533  1.00  0.00    -0.387 OA
ATOM     25  H   UNL     1      23.216  42.160 -47.113  1.00  0.00     0.211 HD
ENDBRANCH   3  24
BRANCH   5  26
ATOM     26  O   UNL     1      25.749  37.283 -46.085  1.00  0.00    -0.347 OA
BRANCH  26  27
ATOM     27  C   UNL     1      27.095  37.136 -46.554  1.00  0.00     0.200 C 
BRANCH  27  28
ATOM     28  C   UNL     1      27.968  36.111 -45.799  1.00  0.00     0.170 C 
BRANCH  28  29
ATOM     29  C   UNL     1      28.878  35.204 -46.608  1.00  0.00    -0.013 A 
ATOM     30  C   UNL     1      30.269  35.413 -46.528  1.00  0.00     0.056 A 
ATOM     31  C   UNL     1      28.407  34.191 -47.460  1.00  0.00     0.010 A 
ATOM     32  C   UNL     1      31.146  34.608 -47.246  1.00  0.00     0.157 A 
ATOM     33  C   UNL     1      29.294  33.398 -48.197  1.00  0.00     0.050 A 
ATOM     34  C   UNL     1      30.658  33.614 -48.083  1.00  0.00     0.157 A 
BRANCH  32  35
ATOM     35  O   UNL     1      32.503  34.748 -47.135  1.00  0.00    -0.504 OA
ATOM     36  H   UNL     1      32.822  35.207 -47.946  1.00  0.00     0.293 HD
ENDBRANCH  32  35
BRANCH  34  37
ATOM     37  O   UNL     1      31.520  32.832 -48.796  1.00  0.00    -0.504 OA
ATOM     38  H   UNL     1      31.047  31.983 -48.904  1.00  0.00     0.293 HD
ENDBRANCH  34  37
ENDBRANCH  28  29
BRANCH  28  39
ATOM     39  O   UNL     1      27.145  35.322 -44.934  1.00  0.00    -0.386 OA
ATOM     40  H   UNL     1      26.358  35.067 -45.462  1.00  0.00     0.211 HD
ENDBRANCH  28  39
ENDBRANCH  27  28
ENDBRANCH  26  27
ENDBRANCH   5  26
BRANCH   4  41
ATOM     41  O   UNL     1      24.094  39.283 -44.956  1.00  0.00    -0.385 OA
ATOM     42  H   UNL     1      24.166  40.165 -44.539  1.00  0.00     0.211 HD
ENDBRANCH   4  41
TORSDOF 16
ENDMDL
MODEL 9
REMARK VINA RESULT:    -5.891      2.100      6.728
REMARK INTER + INTRA:         -11.730
REMARK INTER:                 -10.069
REMARK INTRA:                  -1.661
REMARK UNBOUND:                -1.880
REMARK SMILES C[C@@H]1O[C@@H](OC[C@H]2O[C@@H](OCC(O)c3ccc(O)c(O)c3)[C@H](O)[C@@H](O)[C@@H]2O)[C@H](O)[C@H](O)[C@H]1O
REMARK SMILES IDX 7 1 26 2 24 3 22 4 9 5 8 6 6 7 5 8 4 9 2 10 32 11 3 12 30 13
REMARK SMILES IDX 28 14 1 15 33 16 31 18 29 20 27 22 25 24 10 26 11 27 12 28
REMARK SMILES IDX 14 29 21 30 15 31 19 32 16 33 17 34 20 35 18 37 13 39 23 41
REMARK H PARENT 33 17 31 19 29 21 27 23 25 25 20 36 18 38 13 40 23 42
ROOT
ATOM      1  C   UNL     1      26.900  36.557 -48.130  1.00  0.00     0.178 C 
ATOM      2  C   UNL     1      26.543  36.363 -46.649  1.00  0.00     0.177 C 
ATOM      3  C   UNL     1      27.546  35.414 -45.995  1.00  0.00     0.179 C 
ATOM      4  C   UNL     1      28.970  35.904 -46.230  1.00  0.00     0.202 C 
ATOM      5  C   UNL     1      29.206  36.105 -47.738  1.00  0.00     0.282 C 
ATOM      6  O   UNL     1      28.256  37.034 -48.265  1.00  0.00    -0.341 OA
ENDROOT
BRANCH   1   7
ATOM      7  C   UNL     1      25.947  37.570 -48.785  1.00  0.00     0.198 C 
BRANCH   7   8
ATOM      8  O   UNL     1      26.330  38.893 -48.390  1.00  0.00    -0.347 OA
BRANCH   8   9
ATOM      9  C   UNL     1      26.264  39.838 -49.461  1.00  0.00     0.281 C 
ATOM     10  C   UNL     1      28.643  39.890 -49.745  1.00  0.00     0.150 C 
ATOM     11  C   UNL     1      28.735  41.356 -49.289  1.00  0.00     0.174 C 
ATOM     12  O   UNL     1      27.375  39.622 -50.345  1.00  0.00    -0.344 OA
ATOM     13  C   UNL     1      27.576  41.664 -48.331  1.00  0.00     0.179 C 
ATOM     14  C   UNL     1      26.231  41.297 -48.958  1.00  0.00     0.202 C 
ATOM     15  C   UNL     1      29.712  39.552 -50.780  1.00  0.00     0.041 C 
BRANCH  11  16
ATOM     16  O   UNL     1      29.986  41.636 -48.629  1.00  0.00    -0.388 OA
ATOM     17  H   UNL     1      29.861  41.358 -47.701  1.00  0.00     0.211 HD
ENDBRANCH  11  16
BRANCH  13  18
ATOM     18  O   UNL     1      27.569  43.068 -48.015  1.00  0.00    -0.387 OA
ATOM     19  H   UNL     1      26.658  43.375 -48.196  1.00  0.00     0.211 HD
ENDBRANCH  13  18
BRANCH  14  20
ATOM     20  O   UNL     1      25.949  42.214 -50.030  1.00  0.00    -0.385 OA
ATOM     21  H   UNL     1      25.708  41.641 -50.787  1.00  0.00     0.211 HD
ENDBRANCH  14  20
ENDBRANCH   8   9
ENDBRANCH   7   8
ENDBRANCH   1   7
BRANCH   2  22
ATOM     22  O   UNL     1      25.227  35.827 -46.499  1.00  0.00    -0.387 OA
ATOM     23  H   UNL     1      24.992  35.470 -47.380  1.00  0.00     0.211 HD
ENDBRANCH   2  22
BRANCH   3  24
ATOM     24  O   UNL     1      27.267  35.337 -44.588  1.00  0.00    -0.387 OA
ATOM     25  H   UNL     1      27.102  34.387 -44.414  1.00  0.00     0.211 HD
ENDBRANCH   3  24
BRANCH   5  26
ATOM     26  O   UNL     1      30.534  36.625 -47.861  1.00  0.00    -0.347 OA
BRANCH  26  27
ATOM     27  C   UNL     1      31.344  35.983 -48.853  1.00  0.00     0.200 C 
BRANCH  27  28
ATOM     28  C   UNL     1      32.195  34.791 -48.365  1.00  0.00     0.170 C 
BRANCH  28  29
ATOM     29  C   UNL     1      31.599  33.398 -48.448  1.00  0.00    -0.013 A 
ATOM     30  C   UNL     1      31.771  32.532 -47.350  1.00  0.00     0.056 A 
ATOM     31  C   UNL     1      30.912  32.912 -49.574  1.00  0.00     0.010 A 
ATOM     32  C   UNL     1      31.242  31.247 -47.374  1.00  0.00     0.157 A 
ATOM     33  C   UNL     1      30.400  31.610 -49.601  1.00  0.00     0.050 A 
ATOM     34  C   UNL     1      30.569  30.788 -48.498  1.00  0.00     0.157 A 
BRANCH  32  35
ATOM     35  O   UNL     1      31.340  30.410 -46.295  1.00  0.00    -0.504 OA
ATOM     36  H   UNL     1      30.773  30.780 -45.579  1.00  0.00     0.293 HD
ENDBRANCH  32  35
BRANCH  34  37
ATOM     37  O   UNL     1      30.059  29.522 -48.523  1.00  0.00    -0.504 OA
ATOM     38  H   UNL     1      30.073  29.234 -47.589  1.00  0.00     0.293 HD
ENDBRANCH  34  37
ENDBRANCH  28  29
BRANCH  28  39
ATOM     39  O   UNL     1      32.656  35.041 -47.034  1.00  0.00    -0.386 OA
ATOM     40  H   UNL     1      33.618  34.848 -47.036  1.00  0.00     0.211 HD
ENDBRANCH  28  39
ENDBRANCH  27  28
ENDBRANCH  26  27
ENDBRANCH   5  26
BRANCH   4  41
ATOM     41  O   UNL     1      29.886  34.946 -45.675  1.00  0.00    -0.385 OA
ATOM     42  H   UNL     1      29.332  34.186 -45.409  1.00  0.00     0.211 HD
ENDBRANCH   4  41
TORSDOF 16
ENDMDL
