MODEL 1
REMARK VINA RESULT:    -7.847      0.000      0.000
REMARK INTER + INTRA:         -11.712
REMARK INTER:                 -11.059
REMARK INTRA:                  -0.654
REMARK UNBOUND:                -0.654
REMARK SMILES CO[C@H]1OC(OC(=O)c2cc(O)c(O)c(O)c2)[C@H](O)[C@@H](O)[C@@H]1O
REMARK SMILES IDX 7 1 8 2 6 3 5 4 3 5 22 6 4 7 20 8 18 9 2 10 1 11 23 12 21 14
REMARK SMILES IDX 19 16 9 18 17 19 10 20 15 21 11 22 13 23 16 24 12 26 14 28
REMARK H PARENT 23 13 21 15 19 17 16 25 12 27 14 29
ROOT
ATOM      1  C   UNL     1      28.894  15.184  -4.703  1.00  0.00     0.340 C 
ATOM      2  O   UNL     1      28.093  14.517  -4.068  1.00  0.00    -0.246 OA
ENDROOT
BRANCH   1   3
ATOM      3  O   UNL     1      28.639  15.919  -5.811  1.00  0.00    -0.429 OA
BRANCH   3   4
ATOM      4  C   UNL     1      27.486  15.522  -6.570  1.00  0.00     0.345 C 
ATOM      5  C   UNL     1      26.742  17.778  -6.780  1.00  0.00     0.285 C 
ATOM      6  C   UNL     1      27.048  17.807  -8.288  1.00  0.00     0.202 C 
ATOM      7  O   UNL     1      26.417  16.459  -6.354  1.00  0.00    -0.308 OA
ATOM      8  C   UNL     1      28.174  16.830  -8.606  1.00  0.00     0.183 C 
ATOM      9  C   UNL     1      27.832  15.439  -8.072  1.00  0.00     0.215 C 
BRANCH   5  10
ATOM     10  O   UNL     1      25.631  18.665  -6.577  1.00  0.00    -0.353 OA
ATOM     11  C   UNL     1      25.926  19.668  -5.613  1.00  0.00     0.198 C 
ENDBRANCH   5  10
BRANCH   6  12
ATOM     12  O   UNL     1      27.435  19.120  -8.723  1.00  0.00    -0.385 OA
ATOM     13  H   UNL     1      27.638  19.612  -7.901  1.00  0.00     0.211 HD
ENDBRANCH   6  12
BRANCH   8  14
ATOM     14  O   UNL     1      28.374  16.750 -10.028  1.00  0.00    -0.387 OA
ATOM     15  H   UNL     1      27.983  17.574 -10.385  1.00  0.00     0.211 HD
ENDBRANCH   8  14
BRANCH   9  16
ATOM     16  O   UNL     1      28.929  14.557  -8.336  1.00  0.00    -0.384 OA
ATOM     17  H   UNL     1      29.086  14.625  -9.299  1.00  0.00     0.211 HD
ENDBRANCH   9  16
ENDBRANCH   3   4
ENDBRANCH   1   3
BRANCH   1  18
ATOM     18  C   UNL     1      30.329  15.295  -4.326  1.00  0.00     0.067 A 
ATOM     19  C   UNL     1      31.232  15.730  -5.313  1.00  0.00     0.066 A 
ATOM     20  C   UNL     1      30.791  14.977  -3.040  1.00  0.00     0.066 A 
ATOM     21  C   UNL     1      32.583  15.846  -5.004  1.00  0.00     0.162 A 
ATOM     22  C   UNL     1      32.145  15.099  -2.755  1.00  0.00     0.162 A 
ATOM     23  C   UNL     1      33.037  15.531  -3.729  1.00  0.00     0.200 A 
BRANCH  21  24
ATOM     24  O   UNL     1      33.505  16.266  -5.921  1.00  0.00    -0.504 OA
ATOM     25  H   UNL     1      34.391  16.006  -5.608  1.00  0.00     0.293 HD
ENDBRANCH  21  24
BRANCH  22  26
ATOM     26  O   UNL     1      32.596  14.789  -1.505  1.00  0.00    -0.504 OA
ATOM     27  H   UNL     1      33.390  14.236  -1.658  1.00  0.00     0.293 HD
ENDBRANCH  22  26
BRANCH  23  28
ATOM     28  O   UNL     1      34.364  15.640  -3.414  1.00  0.00    -0.502 OA
ATOM     29  H   UNL     1      34.519  14.921  -2.766  1.00  0.00     0.293 HD
ENDBRANCH  23  28
ENDBRANCH   1  18
TORSDOF 10
ENDMDL
MODEL 2
REMARK VINA RESULT:    -7.569      4.433      9.838
REMARK INTER + INTRA:         -11.320
REMARK INTER:                 -10.965
REMARK INTRA:                  -0.354
REMARK UNBOUND:                -0.654
REMARK SMILES CO[C@H]1OC(OC(=O)c2cc(O)c(O)c(O)c2)[C@H](O)[C@@H](O)[C@@H]1O
REMARK SMILES IDX 7 1 8 2 6 3 5 4 3 5 22 6 4 7 20 8 18 9 2 10 1 11 23 12 21 14
REMARK SMILES IDX 19 16 9 18 17 19 10 20 15 21 11 22 13 23 16 24 12 26 14 28
REMARK H PARENT 23 13 21 15 19 17 16 25 12 27 14 29
ROOT
ATOM      1  C   UNL     1      35.219  14.089  -1.995  1.00  0.00     0.340 C 
ATOM      2  O   UNL     1      35.310  14.255  -0.790  1.00  0.00    -0.246 OA
ENDROOT
BRANCH   1   3
ATOM      3  O   UNL     1      36.107  13.454  -2.796  1.00  0.00    -0.429 OA
BRANCH   3   4
ATOM      4  C   UNL     1      37.195  14.258  -3.280  1.00  0.00     0.345 C 
ATOM      5  C   UNL     1      38.769  13.110  -1.905  1.00  0.00     0.285 C 
ATOM      6  C   UNL     1      39.439  12.442  -3.118  1.00  0.00     0.202 C 
ATOM      7  O   UNL     1      38.207  14.368  -2.265  1.00  0.00    -0.308 OA
ATOM      8  C   UNL     1      38.430  12.293  -4.251  1.00  0.00     0.183 C 
ATOM      9  C   UNL     1      37.788  13.644  -4.566  1.00  0.00     0.215 C 
BRANCH   5  10
ATOM     10  O   UNL     1      39.798  13.278  -0.918  1.00  0.00    -0.353 OA
ATOM     11  C   UNL     1      40.200  14.638  -0.801  1.00  0.00     0.198 C 
ENDBRANCH   5  10
BRANCH   6  12
ATOM     12  O   UNL     1      39.960  11.145  -2.786  1.00  0.00    -0.385 OA
ATOM     13  H   UNL     1      40.931  11.229  -2.876  1.00  0.00     0.211 HD
ENDBRANCH   6  12
BRANCH   8  14
ATOM     14  O   UNL     1      39.080  11.795  -5.433  1.00  0.00    -0.387 OA
ATOM     15  H   UNL     1      38.357  11.434  -5.986  1.00  0.00     0.211 HD
ENDBRANCH   8  14
BRANCH   9  16
ATOM     16  O   UNL     1      36.806  13.463  -5.593  1.00  0.00    -0.384 OA
ATOM     17  H   UNL     1      36.428  14.353  -5.745  1.00  0.00     0.211 HD
ENDBRANCH   9  16
ENDBRANCH   3   4
ENDBRANCH   1   3
BRANCH   1  18
ATOM     18  C   UNL     1      34.061  14.577  -2.790  1.00  0.00     0.067 A 
ATOM     19  C   UNL     1      32.774  14.399  -2.249  1.00  0.00     0.066 A 
ATOM     20  C   UNL     1      34.218  15.191  -4.043  1.00  0.00     0.066 A 
ATOM     21  C   UNL     1      31.663  14.839  -2.959  1.00  0.00     0.162 A 
ATOM     22  C   UNL     1      33.093  15.621  -4.735  1.00  0.00     0.162 A 
ATOM     23  C   UNL     1      31.823  15.447  -4.199  1.00  0.00     0.200 A 
BRANCH  21  24
ATOM     24  O   UNL     1      30.391  14.695  -2.481  1.00  0.00    -0.504 OA
ATOM     25  H   UNL     1      29.949  15.563  -2.518  1.00  0.00     0.293 HD
ENDBRANCH  21  24
BRANCH  22  26
ATOM     26  O   UNL     1      33.245  16.216  -5.953  1.00  0.00    -0.504 OA
ATOM     27  H   UNL     1      32.523  16.876  -5.999  1.00  0.00     0.293 HD
ENDBRANCH  22  26
BRANCH  23  28
ATOM     28  O   UNL     1      30.737  15.882  -4.908  1.00  0.00    -0.502 OA
ATOM     29  H   UNL     1      30.145  15.102  -4.946  1.00  0.00     0.293 HD
ENDBRANCH  23  28
ENDBRANCH   1  18
TORSDOF 10
ENDMDL
MODEL 3
REMARK VINA RESULT:    -6.947      5.073      8.054
REMARK INTER + INTRA:         -10.443
REMARK INTER:                  -9.607
REMARK INTRA:                  -0.836
REMARK UNBOUND:                -0.654
REMARK SMILES CO[C@H]1OC(OC(=O)c2cc(O)c(O)c(O)c2)[C@H](O)[C@@H](O)[C@@H]1O
REMARK SMILES IDX 7 1 8 2 6 3 5 4 3 5 22 6 4 7 20 8 18 9 2 10 1 11 23 12 21 14
REMARK SMILES IDX 19 16 9 18 17 19 10 20 15 21 11 22 13 23 16 24 12 26 14 28
REMARK H PARENT 23 13 21 15 19 17 16 25 12 27 14 29
ROOT
ATOM      1  C   UNL     1      26.329  19.601 -11.401  1.00  0.00     0.340 C 
ATOM      2  O   UNL     1      26.608  19.345 -12.561  1.00  0.00    -0.246 OA
ENDROOT
BRANCH   1   3
ATOM      3  O   UNL     1      25.992  18.716 -10.434  1.00  0.00    -0.429 OA
BRANCH   3   4
ATOM      4  C   UNL     1      27.071  17.929  -9.906  1.00  0.00     0.345 C 
ATOM      5  C   UNL     1      26.297  18.210  -7.669  1.00  0.00     0.285 C 
ATOM      6  C   UNL     1      25.885  16.732  -7.556  1.00  0.00     0.202 C 
ATOM      7  O   UNL     1      27.385  18.366  -8.574  1.00  0.00    -0.308 OA
ATOM      8  C   UNL     1      25.540  16.184  -8.936  1.00  0.00     0.183 C 
ATOM      9  C   UNL     1      26.696  16.431  -9.906  1.00  0.00     0.215 C 
BRANCH   5  10
ATOM     10  O   UNL     1      26.673  18.626  -6.346  1.00  0.00    -0.353 OA
ATOM     11  C   UNL     1      26.058  19.857  -5.986  1.00  0.00     0.198 C 
ENDBRANCH   5  10
BRANCH   6  12
ATOM     12  O   UNL     1      24.750  16.564  -6.692  1.00  0.00    -0.385 OA
ATOM     13  H   UNL     1      24.509  15.618  -6.768  1.00  0.00     0.211 HD
ENDBRANCH   6  12
BRANCH   8  14
ATOM     14  O   UNL     1      25.286  14.770  -8.859  1.00  0.00    -0.387 OA
ATOM     15  H   UNL     1      24.390  14.654  -9.238  1.00  0.00     0.211 HD
ENDBRANCH   8  14
BRANCH   9  16
ATOM     16  O   UNL     1      26.322  15.958 -11.205  1.00  0.00    -0.384 OA
ATOM     17  H   UNL     1      27.150  15.626 -11.604  1.00  0.00     0.211 HD
ENDBRANCH   9  16
ENDBRANCH   3   4
ENDBRANCH   1   3
BRANCH   1  18
ATOM     18  C   UNL     1      26.328  20.986 -10.860  1.00  0.00     0.067 A 
ATOM     19  C   UNL     1      27.049  21.966 -11.567  1.00  0.00     0.066 A 
ATOM     20  C   UNL     1      25.643  21.330  -9.683  1.00  0.00     0.066 A 
ATOM     21  C   UNL     1      27.077  23.274 -11.095  1.00  0.00     0.162 A 
ATOM     22  C   UNL     1      25.686  22.642  -9.230  1.00  0.00     0.162 A 
ATOM     23  C   UNL     1      26.397  23.609  -9.930  1.00  0.00     0.200 A 
BRANCH  21  24
ATOM     24  O   UNL     1      27.758  24.266 -11.742  1.00  0.00    -0.504 OA
ATOM     25  H   UNL     1      28.200  23.879 -12.520  1.00  0.00     0.293 HD
ENDBRANCH  21  24
BRANCH  22  26
ATOM     26  O   UNL     1      25.023  22.976  -8.086  1.00  0.00    -0.504 OA
ATOM     27  H   UNL     1      25.522  22.530  -7.370  1.00  0.00     0.293 HD
ENDBRANCH  22  26
BRANCH  23  28
ATOM     28  O   UNL     1      26.418  24.892  -9.455  1.00  0.00    -0.502 OA
ATOM     29  H   UNL     1      25.620  25.307  -9.844  1.00  0.00     0.293 HD
ENDBRANCH  23  28
ENDBRANCH   1  18
TORSDOF 10
ENDMDL
MODEL 4
REMARK VINA RESULT:    -6.942      1.476      2.554
REMARK INTER + INTRA:         -10.437
REMARK INTER:                  -9.806
REMARK INTRA:                  -0.631
REMARK UNBOUND:                -0.654
REMARK SMILES CO[C@H]1OC(OC(=O)c2cc(O)c(O)c(O)c2)[C@H](O)[C@@H](O)[C@@H]1O
REMARK SMILES IDX 7 1 8 2 6 3 5 4 3 5 22 6 4 7 20 8 18 9 2 10 1 11 23 12 21 14
REMARK SMILES IDX 19 16 9 18 17 19 10 20 15 21 11 22 13 23 16 24 12 26 14 28
REMARK H PARENT 23 13 21 15 19 17 16 25 12 27 14 29
ROOT
ATOM      1  C   UNL     1      28.038  15.478  -5.458  1.00  0.00     0.340 C 
ATOM      2  O   UNL     1      27.059  15.541  -4.733  1.00  0.00    -0.246 OA
ENDROOT
BRANCH   1   3
ATOM      3  O   UNL     1      28.044  15.431  -6.811  1.00  0.00    -0.429 OA
BRANCH   3   4
ATOM      4  C   UNL     1      26.784  15.692  -7.449  1.00  0.00     0.345 C 
ATOM      5  C   UNL     1      27.684  17.535  -8.664  1.00  0.00     0.285 C 
ATOM      6  C   UNL     1      27.588  16.783 -10.003  1.00  0.00     0.202 C 
ATOM      7  O   UNL     1      26.678  17.091  -7.760  1.00  0.00    -0.308 OA
ATOM      8  C   UNL     1      27.685  15.282  -9.761  1.00  0.00     0.183 C 
ATOM      9  C   UNL     1      26.644  14.844  -8.732  1.00  0.00     0.215 C 
BRANCH   5  10
ATOM     10  O   UNL     1      27.512  18.928  -8.970  1.00  0.00    -0.353 OA
ATOM     11  C   UNL     1      26.245  19.185  -9.564  1.00  0.00     0.198 C 
ENDBRANCH   5  10
BRANCH   6  12
ATOM     12  O   UNL     1      28.633  17.178 -10.907  1.00  0.00    -0.385 OA
ATOM     13  H   UNL     1      28.465  16.672 -11.728  1.00  0.00     0.211 HD
ENDBRANCH   6  12
BRANCH   8  14
ATOM     14  O   UNL     1      27.461  14.566 -10.989  1.00  0.00    -0.387 OA
ATOM     15  H   UNL     1      26.525  14.280 -10.947  1.00  0.00     0.211 HD
ENDBRANCH   8  14
BRANCH   9  16
ATOM     16  O   UNL     1      26.797  13.442  -8.483  1.00  0.00    -0.384 OA
ATOM     17  H   UNL     1      27.725  13.333  -8.194  1.00  0.00     0.211 HD
ENDBRANCH   9  16
ENDBRANCH   3   4
ENDBRANCH   1   3
BRANCH   1  18
ATOM     18  C   UNL     1      29.429  15.450  -4.932  1.00  0.00     0.067 A 
ATOM     19  C   UNL     1      29.616  15.048  -3.597  1.00  0.00     0.066 A 
ATOM     20  C   UNL     1      30.535  15.813  -5.718  1.00  0.00     0.066 A 
ATOM     21  C   UNL     1      30.900  15.010  -3.064  1.00  0.00     0.162 A 
ATOM     22  C   UNL     1      31.807  15.768  -5.164  1.00  0.00     0.162 A 
ATOM     23  C   UNL     1      31.991  15.370  -3.846  1.00  0.00     0.200 A 
BRANCH  21  24
ATOM     24  O   UNL     1      31.141  14.625  -1.775  1.00  0.00    -0.504 OA
ATOM     25  H   UNL     1      32.087  14.406  -1.691  1.00  0.00     0.293 HD
ENDBRANCH  21  24
BRANCH  22  26
ATOM     26  O   UNL     1      32.881  16.123  -5.927  1.00  0.00    -0.504 OA
ATOM     27  H   UNL     1      32.637  16.990  -6.312  1.00  0.00     0.293 HD
ENDBRANCH  22  26
BRANCH  23  28
ATOM     28  O   UNL     1      33.259  15.337  -3.332  1.00  0.00    -0.502 OA
ATOM     29  H   UNL     1      33.347  14.433  -2.964  1.00  0.00     0.293 HD
ENDBRANCH  23  28
ENDBRANCH   1  18
TORSDOF 10
ENDMDL
MODEL 5
REMARK VINA RESULT:    -6.931      5.068      8.220
REMARK INTER + INTRA:         -10.421
REMARK INTER:                  -9.609
REMARK INTRA:                  -0.811
REMARK UNBOUND:                -0.654
REMARK SMILES CO[C@H]1OC(OC(=O)c2cc(O)c(O)c(O)c2)[C@H](O)[C@@H](O)[C@@H]1O
REMARK SMILES IDX 7 1 8 2 6 3 5 4 3 5 22 6 4 7 20 8 18 9 2 10 1 11 23 12 21 14
REMARK SMILES IDX 19 16 9 18 17 19 10 20 15 21 11 22 13 23 16 24 12 26 14 28
REMARK H PARENT 23 13 21 15 19 17 16 25 12 27 14 29
ROOT
ATOM      1  C   UNL     1      26.254  19.587 -11.399  1.00  0.00     0.340 C 
ATOM      2  O   UNL     1      26.457  19.283 -12.563  1.00  0.00    -0.246 OA
ENDROOT
BRANCH   1   3
ATOM      3  O   UNL     1      25.950  18.747 -10.382  1.00  0.00    -0.429 OA
BRANCH   3   4
ATOM      4  C   UNL     1      27.045  17.976  -9.862  1.00  0.00     0.345 C 
ATOM      5  C   UNL     1      26.267  18.224  -7.622  1.00  0.00     0.285 C 
ATOM      6  C   UNL     1      25.885  16.737  -7.521  1.00  0.00     0.202 C 
ATOM      7  O   UNL     1      27.351  18.409  -8.526  1.00  0.00    -0.308 OA
ATOM      8  C   UNL     1      25.549  16.194  -8.906  1.00  0.00     0.183 C 
ATOM      9  C   UNL     1      26.699  16.472  -9.874  1.00  0.00     0.215 C 
BRANCH   5  10
ATOM     10  O   UNL     1      26.636  18.636  -6.297  1.00  0.00    -0.353 OA
ATOM     11  C   UNL     1      25.997  19.851  -5.925  1.00  0.00     0.198 C 
ENDBRANCH   5  10
BRANCH   6  12
ATOM     12  O   UNL     1      24.754  16.539  -6.658  1.00  0.00    -0.385 OA
ATOM     13  H   UNL     1      23.994  16.402  -7.259  1.00  0.00     0.211 HD
ENDBRANCH   6  12
BRANCH   8  14
ATOM     14  O   UNL     1      25.323  14.775  -8.841  1.00  0.00    -0.387 OA
ATOM     15  H   UNL     1      24.351  14.671  -8.893  1.00  0.00     0.211 HD
ENDBRANCH   8  14
BRANCH   9  16
ATOM     16  O   UNL     1      26.333  16.002 -11.177  1.00  0.00    -0.384 OA
ATOM     17  H   UNL     1      27.179  15.800 -11.623  1.00  0.00     0.211 HD
ENDBRANCH   9  16
ENDBRANCH   3   4
ENDBRANCH   1   3
BRANCH   1  18
ATOM     18  C   UNL     1      26.322  20.990 -10.910  1.00  0.00     0.067 A 
ATOM     19  C   UNL     1      25.632  21.303  -9.724  1.00  0.00     0.066 A 
ATOM     20  C   UNL     1      27.039  21.987 -11.590  1.00  0.00     0.066 A 
ATOM     21  C   UNL     1      25.667  22.604  -9.232  1.00  0.00     0.162 A 
ATOM     22  C   UNL     1      27.059  23.278 -11.080  1.00  0.00     0.162 A 
ATOM     23  C   UNL     1      26.379  23.587  -9.909  1.00  0.00     0.200 A 
BRANCH  21  24
ATOM     24  O   UNL     1      25.018  22.964  -8.085  1.00  0.00    -0.504 OA
ATOM     25  H   UNL     1      25.032  22.206  -7.472  1.00  0.00     0.293 HD
ENDBRANCH  21  24
BRANCH  22  26
ATOM     26  O   UNL     1      27.753  24.248 -11.743  1.00  0.00    -0.504 OA
ATOM     27  H   UNL     1      27.419  25.090 -11.373  1.00  0.00     0.293 HD
ENDBRANCH  22  26
BRANCH  23  28
ATOM     28  O   UNL     1      26.419  24.870  -9.435  1.00  0.00    -0.502 OA
ATOM     29  H   UNL     1      26.432  25.426 -10.241  1.00  0.00     0.293 HD
ENDBRANCH  23  28
ENDBRANCH   1  18
TORSDOF 10
ENDMDL
MODEL 6
REMARK VINA RESULT:    -6.676      3.950      6.542
REMARK INTER + INTRA:         -10.062
REMARK INTER:                  -9.417
REMARK INTRA:                  -0.645
REMARK UNBOUND:                -0.654
REMARK SMILES CO[C@H]1OC(OC(=O)c2cc(O)c(O)c(O)c2)[C@H](O)[C@@H](O)[C@@H]1O
REMARK SMILES IDX 7 1 8 2 6 3 5 4 3 5 22 6 4 7 20 8 18 9 2 10 1 11 23 12 21 14
REMARK SMILES IDX 19 16 9 18 17 19 10 20 15 21 11 22 13 23 16 24 12 26 14 28
REMARK H PARENT 23 13 21 15 19 17 16 25 12 27 14 29
ROOT
ATOM      1  C   UNL     1      26.729  12.843 -10.359  1.00  0.00     0.340 C 
ATOM      2  O   UNL     1      25.908  12.836 -11.261  1.00  0.00    -0.246 OA
ENDROOT
BRANCH   1   3
ATOM      3  O   UNL     1      27.285  13.932  -9.777  1.00  0.00    -0.429 OA
BRANCH   3   4
ATOM      4  C   UNL     1      26.912  14.166  -8.410  1.00  0.00     0.345 C 
ATOM      5  C   UNL     1      28.617  15.810  -8.136  1.00  0.00     0.285 C 
ATOM      6  C   UNL     1      27.590  16.952  -8.041  1.00  0.00     0.202 C 
ATOM      7  O   UNL     1      28.062  14.589  -7.659  1.00  0.00    -0.308 OA
ATOM      8  C   UNL     1      26.329  16.579  -8.811  1.00  0.00     0.183 C 
ATOM      9  C   UNL     1      25.796  15.230  -8.330  1.00  0.00     0.215 C 
BRANCH   5  10
ATOM     10  O   UNL     1      29.738  16.208  -7.331  1.00  0.00    -0.353 OA
ATOM     11  C   UNL     1      29.687  15.628  -6.033  1.00  0.00     0.198 C 
ENDBRANCH   5  10
BRANCH   6  12
ATOM     12  O   UNL     1      28.114  18.179  -8.574  1.00  0.00    -0.385 OA
ATOM     13  H   UNL     1      27.440  18.857  -8.365  1.00  0.00     0.211 HD
ENDBRANCH   6  12
BRANCH   8  14
ATOM     14  O   UNL     1      25.314  17.580  -8.616  1.00  0.00    -0.387 OA
ATOM     15  H   UNL     1      24.495  17.184  -8.979  1.00  0.00     0.211 HD
ENDBRANCH   8  14
BRANCH   9  16
ATOM     16  O   UNL     1      24.646  14.879  -9.107  1.00  0.00    -0.384 OA
ATOM     17  H   UNL     1      24.785  13.946  -9.363  1.00  0.00     0.211 HD
ENDBRANCH   9  16
ENDBRANCH   3   4
ENDBRANCH   1   3
BRANCH   1  18
ATOM     18  C   UNL     1      27.254  11.598  -9.738  1.00  0.00     0.067 A 
ATOM     19  C   UNL     1      26.321  10.629  -9.325  1.00  0.00     0.066 A 
ATOM     20  C   UNL     1      28.628  11.375  -9.554  1.00  0.00     0.066 A 
ATOM     21  C   UNL     1      26.768   9.451  -8.737  1.00  0.00     0.162 A 
ATOM     22  C   UNL     1      29.051  10.191  -8.963  1.00  0.00     0.162 A 
ATOM     23  C   UNL     1      28.129   9.234  -8.557  1.00  0.00     0.200 A 
BRANCH  21  24
ATOM     24  O   UNL     1      25.908   8.475  -8.320  1.00  0.00    -0.504 OA
ATOM     25  H   UNL     1      26.241   7.615  -8.636  1.00  0.00     0.293 HD
ENDBRANCH  21  24
BRANCH  22  26
ATOM     26  O   UNL     1      30.386   9.975  -8.782  1.00  0.00    -0.504 OA
ATOM     27  H   UNL     1      30.769  10.019  -9.682  1.00  0.00     0.293 HD
ENDBRANCH  22  26
BRANCH  23  28
ATOM     28  O   UNL     1      28.581   8.079  -7.979  1.00  0.00    -0.502 OA
ATOM     29  H   UNL     1      27.820   7.465  -8.040  1.00  0.00     0.293 HD
ENDBRANCH  23  28
ENDBRANCH   1  18
TORSDOF 10
ENDMDL
MODEL 7
REMARK VINA RESULT:    -6.575      5.233      8.683
REMARK INTER + INTRA:          -9.919
REMARK INTER:                  -9.268
REMARK INTRA:                  -0.651
REMARK UNBOUND:                -0.654
REMARK SMILES CO[C@H]1OC(OC(=O)c2cc(O)c(O)c(O)c2)[C@H](O)[C@@H](O)[C@@H]1O
REMARK SMILES IDX 7 1 8 2 6 3 5 4 3 5 22 6 4 7 20 8 18 9 2 10 1 11 23 12 21 14
REMARK SMILES IDX 19 16 9 18 17 19 10 20 15 21 11 22 13 23 16 24 12 26 14 28
REMARK H PARENT 23 13 21 15 19 17 16 25 12 27 14 29
ROOT
ATOM      1  C   UNL     1      24.599  20.402 -10.656  1.00  0.00     0.340 C 
ATOM      2  O   UNL     1      23.387  20.547 -10.655  1.00  0.00    -0.246 OA
ENDROOT
BRANCH   1   3
ATOM      3  O   UNL     1      25.275  19.231 -10.597  1.00  0.00    -0.429 OA
BRANCH   3   4
ATOM      4  C   UNL     1      25.178  18.517  -9.354  1.00  0.00     0.345 C 
ATOM      5  C   UNL     1      25.554  16.422 -10.430  1.00  0.00     0.285 C 
ATOM      6  C   UNL     1      26.941  16.266  -9.783  1.00  0.00     0.202 C 
ATOM      7  O   UNL     1      24.689  17.187  -9.596  1.00  0.00    -0.308 OA
ATOM      8  C   UNL     1      27.532  17.639  -9.486  1.00  0.00     0.183 C 
ATOM      9  C   UNL     1      26.552  18.465  -8.653  1.00  0.00     0.215 C 
BRANCH   5  10
ATOM     10  O   UNL     1      25.040  15.093 -10.610  1.00  0.00    -0.353 OA
ATOM     11  C   UNL     1      24.135  15.021 -11.705  1.00  0.00     0.198 C 
ENDBRANCH   5  10
BRANCH   6  12
ATOM     12  O   UNL     1      27.844  15.547 -10.638  1.00  0.00    -0.385 OA
ATOM     13  H   UNL     1      27.725  15.942 -11.526  1.00  0.00     0.211 HD
ENDBRANCH   6  12
BRANCH   8  14
ATOM     14  O   UNL     1      28.766  17.502  -8.760  1.00  0.00    -0.387 OA
ATOM     15  H   UNL     1      29.164  18.397  -8.767  1.00  0.00     0.211 HD
ENDBRANCH   8  14
BRANCH   9  16
ATOM     16  O   UNL     1      27.109  19.767  -8.437  1.00  0.00    -0.384 OA
ATOM     17  H   UNL     1      26.364  20.313  -8.116  1.00  0.00     0.211 HD
ENDBRANCH   9  16
ENDBRANCH   3   4
ENDBRANCH   1   3
BRANCH   1  18
ATOM     18  C   UNL     1      25.547  21.545 -10.732  1.00  0.00     0.067 A 
ATOM     19  C   UNL     1      25.376  22.599  -9.815  1.00  0.00     0.066 A 
ATOM     20  C   UNL     1      26.581  21.599 -11.680  1.00  0.00     0.066 A 
ATOM     21  C   UNL     1      26.239  23.689  -9.852  1.00  0.00     0.162 A 
ATOM     22  C   UNL     1      27.429  22.698 -11.699  1.00  0.00     0.162 A 
ATOM     23  C   UNL     1      27.262  23.737 -10.792  1.00  0.00     0.200 A 
BRANCH  21  24
ATOM     24  O   UNL     1      26.122  24.738  -8.985  1.00  0.00    -0.504 OA
ATOM     25  H   UNL     1      26.987  24.884  -8.560  1.00  0.00     0.293 HD
ENDBRANCH  21  24
BRANCH  22  26
ATOM     26  O   UNL     1      28.433  22.751 -12.621  1.00  0.00    -0.504 OA
ATOM     27  H   UNL     1      28.487  23.695 -12.876  1.00  0.00     0.293 HD
ENDBRANCH  22  26
BRANCH  23  28
ATOM     28  O   UNL     1      28.116  24.805 -10.839  1.00  0.00    -0.502 OA
ATOM     29  H   UNL     1      29.001  24.402 -10.956  1.00  0.00     0.293 HD
ENDBRANCH  23  28
ENDBRANCH   1  18
TORSDOF 10
ENDMDL
MODEL 8
REMARK VINA RESULT:    -6.567      4.128      7.578
REMARK INTER + INTRA:          -9.908
REMARK INTER:                  -9.195
REMARK INTRA:                  -0.714
REMARK UNBOUND:                -0.654
REMARK SMILES CO[C@H]1OC(OC(=O)c2cc(O)c(O)c(O)c2)[C@H](O)[C@@H](O)[C@@H]1O
REMARK SMILES IDX 7 1 8 2 6 3 5 4 3 5 22 6 4 7 20 8 18 9 2 10 1 11 23 12 21 14
REMARK SMILES IDX 19 16 9 18 17 19 10 20 15 21 11 22 13 23 16 24 12 26 14 28
REMARK H PARENT 23 13 21 15 19 17 16 25 12 27 14 29
ROOT
ATOM      1  C   UNL     1      28.124  14.601  -8.105  1.00  0.00     0.340 C 
ATOM      2  O   UNL     1      29.280  14.733  -7.737  1.00  0.00    -0.246 OA
ENDROOT
BRANCH   1   3
ATOM      3  O   UNL     1      27.485  13.437  -8.369  1.00  0.00    -0.429 OA
BRANCH   3   4
ATOM      4  C   UNL     1      27.887  12.765  -9.573  1.00  0.00     0.345 C 
ATOM      5  C   UNL     1      28.412  10.767  -8.385  1.00  0.00     0.285 C 
ATOM      6  C   UNL     1      27.226  10.008  -9.006  1.00  0.00     0.202 C 
ATOM      7  O   UNL     1      28.886  11.778  -9.268  1.00  0.00    -0.308 OA
ATOM      8  C   UNL     1      26.118  10.990  -9.368  1.00  0.00     0.183 C 
ATOM      9  C   UNL     1      26.669  12.105 -10.255  1.00  0.00     0.215 C 
BRANCH   5  10
ATOM     10  O   UNL     1      29.434   9.787  -8.141  1.00  0.00    -0.353 OA
ATOM     11  C   UNL     1      30.010   9.313  -9.352  1.00  0.00     0.198 C 
ENDBRANCH   5  10
BRANCH   6  12
ATOM     12  O   UNL     1      26.698   9.023  -8.103  1.00  0.00    -0.385 OA
ATOM     13  H   UNL     1      27.422   8.375  -7.981  1.00  0.00     0.211 HD
ENDBRANCH   6  12
BRANCH   8  14
ATOM     14  O   UNL     1      25.063  10.309 -10.071  1.00  0.00    -0.387 OA
ATOM     15  H   UNL     1      24.235  10.696  -9.720  1.00  0.00     0.211 HD
ENDBRANCH   8  14
BRANCH   9  16
ATOM     16  O   UNL     1      25.621  13.040 -10.532  1.00  0.00    -0.384 OA
ATOM     17  H   UNL     1      25.858  13.847 -10.031  1.00  0.00     0.211 HD
ENDBRANCH   9  16
ENDBRANCH   3   4
ENDBRANCH   1   3
BRANCH   1  18
ATOM     18  C   UNL     1      27.209  15.754  -8.317  1.00  0.00     0.067 A 
ATOM     19  C   UNL     1      27.789  17.016  -8.542  1.00  0.00     0.066 A 
ATOM     20  C   UNL     1      25.812  15.617  -8.293  1.00  0.00     0.066 A 
ATOM     21  C   UNL     1      26.970  18.123  -8.743  1.00  0.00     0.162 A 
ATOM     22  C   UNL     1      25.015  16.736  -8.495  1.00  0.00     0.162 A 
ATOM     23  C   UNL     1      25.588  17.981  -8.719  1.00  0.00     0.200 A 
BRANCH  21  24
ATOM     24  O   UNL     1      27.478  19.371  -8.969  1.00  0.00    -0.504 OA
ATOM     25  H   UNL     1      26.925  20.019  -8.495  1.00  0.00     0.293 HD
ENDBRANCH  21  24
BRANCH  22  26
ATOM     26  O   UNL     1      23.657  16.603  -8.469  1.00  0.00    -0.504 OA
ATOM     27  H   UNL     1      23.452  16.010  -9.221  1.00  0.00     0.293 HD
ENDBRANCH  22  26
BRANCH  23  28
ATOM     28  O   UNL     1      24.773  19.063  -8.914  1.00  0.00    -0.502 OA
ATOM     29  H   UNL     1      25.332  19.702  -9.403  1.00  0.00     0.293 HD
ENDBRANCH  23  28
ENDBRANCH   1  18
TORSDOF 10
ENDMDL
MODEL 9
REMARK VINA RESULT:    -6.535      2.631      3.746
REMARK INTER + INTRA:          -9.862
REMARK INTER:                  -9.159
REMARK INTRA:                  -0.703
REMARK UNBOUND:                -0.654
REMARK SMILES CO[C@H]1OC(OC(=O)c2cc(O)c(O)c(O)c2)[C@H](O)[C@@H](O)[C@@H]1O
REMARK SMILES IDX 7 1 8 2 6 3 5 4 3 5 22 6 4 7 20 8 18 9 2 10 1 11 23 12 21 14
REMARK SMILES IDX 19 16 9 18 17 19 10 20 15 21 11 22 13 23 16 24 12 26 14 28
REMARK H PARENT 23 13 21 15 19 17 16 25 12 27 14 29
ROOT
ATOM      1  C   UNL     1      26.047  16.557  -6.607  1.00  0.00     0.340 C 
ATOM      2  O   UNL     1      25.145  16.691  -5.795  1.00  0.00    -0.246 OA
ENDROOT
BRANCH   1   3
ATOM      3  O   UNL     1      25.957  16.696  -7.950  1.00  0.00    -0.429 OA
BRANCH   3   4
ATOM      4  C   UNL     1      24.900  15.958  -8.584  1.00  0.00     0.345 C 
ATOM      5  C   UNL     1      24.876  17.434 -10.456  1.00  0.00     0.285 C 
ATOM      6  C   UNL     1      25.451  16.357 -11.394  1.00  0.00     0.202 C 
ATOM      7  O   UNL     1      24.118  16.840  -9.407  1.00  0.00    -0.308 OA
ATOM      8  C   UNL     1      26.293  15.371 -10.593  1.00  0.00     0.183 C 
ATOM      9  C   UNL     1      25.480  14.805  -9.430  1.00  0.00     0.215 C 
BRANCH   5  10
ATOM     10  O   UNL     1      24.043  18.274 -11.270  1.00  0.00    -0.353 OA
ATOM     11  C   UNL     1      24.155  19.643 -10.902  1.00  0.00     0.198 C 
ENDBRANCH   5  10
BRANCH   6  12
ATOM     12  O   UNL     1      26.268  16.936 -12.425  1.00  0.00    -0.385 OA
ATOM     13  H   UNL     1      25.759  17.706 -12.752  1.00  0.00     0.211 HD
ENDBRANCH   6  12
BRANCH   8  14
ATOM     14  O   UNL     1      26.723  14.287 -11.436  1.00  0.00    -0.387 OA
ATOM     15  H   UNL     1      27.480  14.646 -11.943  1.00  0.00     0.211 HD
ENDBRANCH   8  14
BRANCH   9  16
ATOM     16  O   UNL     1      26.312  13.926  -8.665  1.00  0.00    -0.384 OA
ATOM     17  H   UNL     1      25.858  13.830  -7.803  1.00  0.00     0.211 HD
ENDBRANCH   9  16
ENDBRANCH   3   4
ENDBRANCH   1   3
BRANCH   1  18
ATOM     18  C   UNL     1      27.439  16.212  -6.214  1.00  0.00     0.067 A 
ATOM     19  C   UNL     1      28.424  16.220  -7.219  1.00  0.00     0.066 A 
ATOM     20  C   UNL     1      27.785  15.881  -4.894  1.00  0.00     0.066 A 
ATOM     21  C   UNL     1      29.738  15.901  -6.896  1.00  0.00     0.162 A 
ATOM     22  C   UNL     1      29.104  15.565  -4.595  1.00  0.00     0.162 A 
ATOM     23  C   UNL     1      30.075  15.575  -5.587  1.00  0.00     0.200 A 
BRANCH  21  24
ATOM     24  O   UNL     1      30.735  15.895  -7.830  1.00  0.00    -0.504 OA
ATOM     25  H   UNL     1      30.344  15.681  -8.697  1.00  0.00     0.293 HD
ENDBRANCH  21  24
BRANCH  22  26
ATOM     26  O   UNL     1      29.439  15.242  -3.313  1.00  0.00    -0.504 OA
ATOM     27  H   UNL     1      28.753  14.604  -3.030  1.00  0.00     0.293 HD
ENDBRANCH  22  26
BRANCH  23  28
ATOM     28  O   UNL     1      31.365  15.259  -5.258  1.00  0.00    -0.502 OA
ATOM     29  H   UNL     1      31.891  16.022  -5.577  1.00  0.00     0.293 HD
ENDBRANCH  23  28
ENDBRANCH   1  18
TORSDOF 10
ENDMDL
