MODEL 1
REMARK VINA RESULT:    -7.807      0.000      0.000
REMARK INTER + INTRA:         -11.341
REMARK INTER:                 -11.002
REMARK INTRA:                  -0.339
REMARK UNBOUND:                -0.339
REMARK SMILES CO[C@H]1OC(OC(=O)c2cc(O)c(O)c(O)c2)[C@H](O)[C@@H](O)[C@@H]1O
REMARK SMILES IDX 7 1 8 2 6 3 5 4 3 5 22 6 4 7 20 8 18 9 2 10 1 11 23 12 21 14
REMARK SMILES IDX 19 16 9 18 17 19 10 20 15 21 11 22 13 23 16 24 12 26 14 28
REMARK H PARENT 23 13 21 15 19 17 16 25 12 27 14 29
ROOT
ATOM      1  C   UNL     1      35.221  14.086  -1.981  1.00  0.00     0.340 C 
ATOM      2  O   UNL     1      35.320  14.246  -0.775  1.00  0.00    -0.246 OA
ENDROOT
BRANCH   1   3
ATOM      3  O   UNL     1      36.106  13.460  -2.792  1.00  0.00    -0.429 OA
BRANCH   3   4
ATOM      4  C   UNL     1      37.172  14.277  -3.300  1.00  0.00     0.345 C 
ATOM      5  C   UNL     1      38.781  13.186  -1.919  1.00  0.00     0.285 C 
ATOM      6  C   UNL     1      39.455  12.511  -3.126  1.00  0.00     0.202 C 
ATOM      7  O   UNL     1      38.190  14.426  -2.296  1.00  0.00    -0.308 OA
ATOM      8  C   UNL     1      38.439  12.321  -4.246  1.00  0.00     0.183 C 
ATOM      9  C   UNL     1      37.767  13.653  -4.580  1.00  0.00     0.215 C 
BRANCH   5  10
ATOM     10  O   UNL     1      39.814  13.393  -0.943  1.00  0.00    -0.353 OA
ATOM     11  C   UNL     1      40.192  14.762  -0.857  1.00  0.00     0.198 C 
ENDBRANCH   5  10
BRANCH   6  12
ATOM     12  O   UNL     1      40.005  11.231  -2.776  1.00  0.00    -0.385 OA
ATOM     13  H   UNL     1      39.822  10.655  -3.546  1.00  0.00     0.211 HD
ENDBRANCH   6  12
BRANCH   8  14
ATOM     14  O   UNL     1      39.090  11.816  -5.425  1.00  0.00    -0.387 OA
ATOM     15  H   UNL     1      39.211  12.598  -6.002  1.00  0.00     0.211 HD
ENDBRANCH   8  14
BRANCH   9  16
ATOM     16  O   UNL     1      36.780  13.434  -5.594  1.00  0.00    -0.384 OA
ATOM     17  H   UNL     1      36.511  14.328  -5.886  1.00  0.00     0.211 HD
ENDBRANCH   9  16
ENDBRANCH   3   4
ENDBRANCH   1   3
BRANCH   1  18
ATOM     18  C   UNL     1      34.055  14.573  -2.765  1.00  0.00     0.067 A 
ATOM     19  C   UNL     1      32.773  14.388  -2.214  1.00  0.00     0.066 A 
ATOM     20  C   UNL     1      34.200  15.196  -4.015  1.00  0.00     0.066 A 
ATOM     21  C   UNL     1      31.654  14.827  -2.914  1.00  0.00     0.162 A 
ATOM     22  C   UNL     1      33.068  15.624  -4.696  1.00  0.00     0.162 A 
ATOM     23  C   UNL     1      31.803  15.443  -4.152  1.00  0.00     0.200 A 
BRANCH  21  24
ATOM     24  O   UNL     1      30.387  14.676  -2.427  1.00  0.00    -0.504 OA
ATOM     25  H   UNL     1      30.114  13.749  -2.560  1.00  0.00     0.293 HD
ENDBRANCH  21  24
BRANCH  22  26
ATOM     26  O   UNL     1      33.208  16.227  -5.912  1.00  0.00    -0.504 OA
ATOM     27  H   UNL     1      32.358  16.064  -6.370  1.00  0.00     0.293 HD
ENDBRANCH  22  26
BRANCH  23  28
ATOM     28  O   UNL     1      30.710  15.877  -4.850  1.00  0.00    -0.502 OA
ATOM     29  H   UNL     1      30.878  16.831  -4.994  1.00  0.00     0.293 HD
ENDBRANCH  23  28
ENDBRANCH   1  18
TORSDOF 10
ENDMDL
MODEL 2
REMARK VINA RESULT:    -7.159     11.478     13.448
REMARK INTER + INTRA:         -10.427
REMARK INTER:                  -9.592
REMARK INTRA:                  -0.835
REMARK UNBOUND:                -0.339
REMARK SMILES CO[C@H]1OC(OC(=O)c2cc(O)c(O)c(O)c2)[C@H](O)[C@@H](O)[C@@H]1O
REMARK SMILES IDX 7 1 8 2 6 3 5 4 3 5 22 6 4 7 20 8 18 9 2 10 1 11 23 12 21 14
REMARK SMILES IDX 19 16 9 18 17 19 10 20 15 21 11 22 13 23 16 24 12 26 14 28
REMARK H PARENT 23 13 21 15 19 17 16 25 12 27 14 29
ROOT
ATOM      1  C   UNL     1      26.343  19.541 -11.353  1.00  0.00     0.340 C 
ATOM      2  O   UNL     1      26.607  19.271 -12.514  1.00  0.00    -0.246 OA
ENDROOT
BRANCH   1   3
ATOM      3  O   UNL     1      26.019  18.669 -10.371  1.00  0.00    -0.429 OA
BRANCH   3   4
ATOM      4  C   UNL     1      27.112  17.920  -9.816  1.00  0.00     0.345 C 
ATOM      5  C   UNL     1      26.296  18.209  -7.595  1.00  0.00     0.285 C 
ATOM      6  C   UNL     1      25.926  16.720  -7.468  1.00  0.00     0.202 C 
ATOM      7  O   UNL     1      27.393  18.385  -8.485  1.00  0.00    -0.308 OA
ATOM      8  C   UNL     1      25.619  16.145  -8.845  1.00  0.00     0.183 C 
ATOM      9  C   UNL     1      26.781  16.412  -9.801  1.00  0.00     0.215 C 
BRANCH   5  10
ATOM     10  O   UNL     1      26.639  18.653  -6.273  1.00  0.00    -0.353 OA
ATOM     11  C   UNL     1      25.990  19.875  -5.942  1.00  0.00     0.198 C 
ENDBRANCH   5  10
BRANCH   6  12
ATOM     12  O   UNL     1      24.783  16.530  -6.619  1.00  0.00    -0.385 OA
ATOM     13  H   UNL     1      24.236  17.332  -6.744  1.00  0.00     0.211 HD
ENDBRANCH   6  12
BRANCH   8  14
ATOM     14  O   UNL     1      25.405  14.725  -8.753  1.00  0.00    -0.387 OA
ATOM     15  H   UNL     1      24.762  14.519  -9.463  1.00  0.00     0.211 HD
ENDBRANCH   8  14
BRANCH   9  16
ATOM     16  O   UNL     1      26.441  15.911 -11.098  1.00  0.00    -0.384 OA
ATOM     17  H   UNL     1      26.841  15.020 -11.141  1.00  0.00     0.211 HD
ENDBRANCH   9  16
ENDBRANCH   3   4
ENDBRANCH   1   3
BRANCH   1  18
ATOM     18  C   UNL     1      26.347  20.933 -10.830  1.00  0.00     0.067 A 
ATOM     19  C   UNL     1      27.071  21.901 -11.551  1.00  0.00     0.066 A 
ATOM     20  C   UNL     1      25.666  21.294  -9.656  1.00  0.00     0.066 A 
ATOM     21  C   UNL     1      27.104  23.215 -11.095  1.00  0.00     0.162 A 
ATOM     22  C   UNL     1      25.715  22.612  -9.220  1.00  0.00     0.162 A 
ATOM     23  C   UNL     1      26.427  23.567  -9.933  1.00  0.00     0.200 A 
BRANCH  21  24
ATOM     24  O   UNL     1      27.788  24.196 -11.756  1.00  0.00    -0.504 OA
ATOM     25  H   UNL     1      28.742  24.040 -11.636  1.00  0.00     0.293 HD
ENDBRANCH  21  24
BRANCH  22  26
ATOM     26  O   UNL     1      25.054  22.962  -8.079  1.00  0.00    -0.504 OA
ATOM     27  H   UNL     1      24.119  22.731  -8.252  1.00  0.00     0.293 HD
ENDBRANCH  22  26
BRANCH  23  28
ATOM     28  O   UNL     1      26.454  24.856  -9.475  1.00  0.00    -0.502 OA
ATOM     29  H   UNL     1      27.004  24.814  -8.666  1.00  0.00     0.293 HD
ENDBRANCH  23  28
ENDBRANCH   1  18
TORSDOF 10
ENDMDL
MODEL 3
REMARK VINA RESULT:    -7.150     11.522     13.395
REMARK INTER + INTRA:         -10.415
REMARK INTER:                  -9.605
REMARK INTRA:                  -0.810
REMARK UNBOUND:                -0.339
REMARK SMILES CO[C@H]1OC(OC(=O)c2cc(O)c(O)c(O)c2)[C@H](O)[C@@H](O)[C@@H]1O
REMARK SMILES IDX 7 1 8 2 6 3 5 4 3 5 22 6 4 7 20 8 18 9 2 10 1 11 23 12 21 14
REMARK SMILES IDX 19 16 9 18 17 19 10 20 15 21 11 22 13 23 16 24 12 26 14 28
REMARK H PARENT 23 13 21 15 19 17 16 25 12 27 14 29
ROOT
ATOM      1  C   UNL     1      26.296  19.597 -11.378  1.00  0.00     0.340 C 
ATOM      2  O   UNL     1      26.518  19.287 -12.537  1.00  0.00    -0.246 OA
ENDROOT
BRANCH   1   3
ATOM      3  O   UNL     1      25.979  18.762 -10.362  1.00  0.00    -0.429 OA
BRANCH   3   4
ATOM      4  C   UNL     1      27.062  17.976  -9.840  1.00  0.00     0.345 C 
ATOM      5  C   UNL     1      26.267  18.206  -7.605  1.00  0.00     0.285 C 
ATOM      6  C   UNL     1      25.871  16.721  -7.524  1.00  0.00     0.202 C 
ATOM      7  O   UNL     1      27.361  18.391  -8.497  1.00  0.00    -0.308 OA
ATOM      8  C   UNL     1      25.542  16.197  -8.917  1.00  0.00     0.183 C 
ATOM      9  C   UNL     1      26.703  16.475  -9.872  1.00  0.00     0.215 C 
BRANCH   5  10
ATOM     10  O   UNL     1      26.628  18.600  -6.271  1.00  0.00    -0.353 OA
ATOM     11  C   UNL     1      26.009  19.826  -5.898  1.00  0.00     0.198 C 
ENDBRANCH   5  10
BRANCH   6  12
ATOM     12  O   UNL     1      24.730  16.524  -6.672  1.00  0.00    -0.385 OA
ATOM     13  H   UNL     1      24.761  17.262  -6.030  1.00  0.00     0.211 HD
ENDBRANCH   6  12
BRANCH   8  14
ATOM     14  O   UNL     1      25.303  14.779  -8.869  1.00  0.00    -0.387 OA
ATOM     15  H   UNL     1      25.372  14.543  -7.921  1.00  0.00     0.211 HD
ENDBRANCH   8  14
BRANCH   9  16
ATOM     16  O   UNL     1      26.344  16.023 -11.183  1.00  0.00    -0.384 OA
ATOM     17  H   UNL     1      26.183  16.838 -11.699  1.00  0.00     0.211 HD
ENDBRANCH   9  16
ENDBRANCH   3   4
ENDBRANCH   1   3
BRANCH   1  18
ATOM     18  C   UNL     1      26.352  21.003 -10.896  1.00  0.00     0.067 A 
ATOM     19  C   UNL     1      25.642  21.321  -9.723  1.00  0.00     0.066 A 
ATOM     20  C   UNL     1      27.076  21.998 -11.571  1.00  0.00     0.066 A 
ATOM     21  C   UNL     1      25.665  22.624  -9.238  1.00  0.00     0.162 A 
ATOM     22  C   UNL     1      27.083  23.293 -11.069  1.00  0.00     0.162 A 
ATOM     23  C   UNL     1      26.384  23.606  -9.910  1.00  0.00     0.200 A 
BRANCH  21  24
ATOM     24  O   UNL     1      24.997  22.989  -8.103  1.00  0.00    -0.504 OA
ATOM     25  H   UNL     1      24.501  23.808  -8.288  1.00  0.00     0.293 HD
ENDBRANCH  21  24
BRANCH  22  26
ATOM     26  O   UNL     1      27.785  24.261 -11.726  1.00  0.00    -0.504 OA
ATOM     27  H   UNL     1      28.438  23.771 -12.266  1.00  0.00     0.293 HD
ENDBRANCH  22  26
BRANCH  23  28
ATOM     28  O   UNL     1      26.413  24.892  -9.442  1.00  0.00    -0.502 OA
ATOM     29  H   UNL     1      25.603  24.968  -8.895  1.00  0.00     0.293 HD
ENDBRANCH  23  28
ENDBRANCH   1  18
TORSDOF 10
ENDMDL
MODEL 4
REMARK VINA RESULT:    -6.929      8.076     11.597
REMARK INTER + INTRA:         -10.104
REMARK INTER:                  -9.503
REMARK INTRA:                  -0.601
REMARK UNBOUND:                -0.339
REMARK SMILES CO[C@H]1OC(OC(=O)c2cc(O)c(O)c(O)c2)[C@H](O)[C@@H](O)[C@@H]1O
REMARK SMILES IDX 7 1 8 2 6 3 5 4 3 5 22 6 4 7 20 8 18 9 2 10 1 11 23 12 21 14
REMARK SMILES IDX 19 16 9 18 17 19 10 20 15 21 11 22 13 23 16 24 12 26 14 28
REMARK H PARENT 23 13 21 15 19 17 16 25 12 27 14 29
ROOT
ATOM      1  C   UNL     1      26.636  12.868 -10.382  1.00  0.00     0.340 C 
ATOM      2  O   UNL     1      25.818  12.868 -11.288  1.00  0.00    -0.246 OA
ENDROOT
BRANCH   1   3
ATOM      3  O   UNL     1      27.221  13.950  -9.817  1.00  0.00    -0.429 OA
BRANCH   3   4
ATOM      4  C   UNL     1      26.857  14.216  -8.453  1.00  0.00     0.345 C 
ATOM      5  C   UNL     1      28.567  15.862  -8.227  1.00  0.00     0.285 C 
ATOM      6  C   UNL     1      27.543  17.008  -8.151  1.00  0.00     0.202 C 
ATOM      7  O   UNL     1      28.012  14.653  -7.719  1.00  0.00    -0.308 OA
ATOM      8  C   UNL     1      26.277  16.621  -8.905  1.00  0.00     0.183 C 
ATOM      9  C   UNL     1      25.744  15.284  -8.391  1.00  0.00     0.215 C 
BRANCH   5  10
ATOM     10  O   UNL     1      29.693  16.274  -7.437  1.00  0.00    -0.353 OA
ATOM     11  C   UNL     1      29.709  15.635  -6.166  1.00  0.00     0.198 C 
ENDBRANCH   5  10
BRANCH   6  12
ATOM     12  O   UNL     1      28.067  18.222  -8.715  1.00  0.00    -0.385 OA
ATOM     13  H   UNL     1      27.791  18.207  -9.654  1.00  0.00     0.211 HD
ENDBRANCH   6  12
BRANCH   8  14
ATOM     14  O   UNL     1      25.266  17.629  -8.726  1.00  0.00    -0.387 OA
ATOM     15  H   UNL     1      24.479  17.284  -9.198  1.00  0.00     0.211 HD
ENDBRANCH   8  14
BRANCH   9  16
ATOM     16  O   UNL     1      24.589  14.919  -9.154  1.00  0.00    -0.384 OA
ATOM     17  H   UNL     1      24.892  14.208  -9.753  1.00  0.00     0.211 HD
ENDBRANCH   9  16
ENDBRANCH   3   4
ENDBRANCH   1   3
BRANCH   1  18
ATOM     18  C   UNL     1      27.120  11.620  -9.734  1.00  0.00     0.067 A 
ATOM     19  C   UNL     1      26.162  10.649  -9.387  1.00  0.00     0.066 A 
ATOM     20  C   UNL     1      28.479  11.396  -9.462  1.00  0.00     0.066 A 
ATOM     21  C   UNL     1      26.571   9.468  -8.777  1.00  0.00     0.162 A 
ATOM     22  C   UNL     1      28.863  10.209  -8.852  1.00  0.00     0.162 A 
ATOM     23  C   UNL     1      27.918   9.250  -8.511  1.00  0.00     0.200 A 
BRANCH  21  24
ATOM     24  O   UNL     1      25.686   8.489  -8.421  1.00  0.00    -0.504 OA
ATOM     25  H   UNL     1      25.969   8.115  -7.567  1.00  0.00     0.293 HD
ENDBRANCH  21  24
BRANCH  22  26
ATOM     26  O   UNL     1      30.184   9.992  -8.586  1.00  0.00    -0.504 OA
ATOM     27  H   UNL     1      30.538  10.874  -8.351  1.00  0.00     0.293 HD
ENDBRANCH  22  26
BRANCH  23  28
ATOM     28  O   UNL     1      28.332   8.092  -7.911  1.00  0.00    -0.502 OA
ATOM     29  H   UNL     1      28.342   8.306  -6.954  1.00  0.00     0.293 HD
ENDBRANCH  23  28
ENDBRANCH   1  18
TORSDOF 10
ENDMDL
MODEL 5
REMARK VINA RESULT:    -6.848      9.231     11.290
REMARK INTER + INTRA:          -9.990
REMARK INTER:                  -9.308
REMARK INTRA:                  -0.682
REMARK UNBOUND:                -0.339
REMARK SMILES CO[C@H]1OC(OC(=O)c2cc(O)c(O)c(O)c2)[C@H](O)[C@@H](O)[C@@H]1O
REMARK SMILES IDX 7 1 8 2 6 3 5 4 3 5 22 6 4 7 20 8 18 9 2 10 1 11 23 12 21 14
REMARK SMILES IDX 19 16 9 18 17 19 10 20 15 21 11 22 13 23 16 24 12 26 14 28
REMARK H PARENT 23 13 21 15 19 17 16 25 12 27 14 29
ROOT
ATOM      1  C   UNL     1      28.093  14.643  -7.743  1.00  0.00     0.340 C 
ATOM      2  O   UNL     1      29.178  14.745  -7.195  1.00  0.00    -0.246 OA
ENDROOT
BRANCH   1   3
ATOM      3  O   UNL     1      27.481  13.497  -8.125  1.00  0.00    -0.429 OA
BRANCH   3   4
ATOM      4  C   UNL     1      28.279  12.596  -8.908  1.00  0.00     0.345 C 
ATOM      5  C   UNL     1      26.885  10.743  -8.355  1.00  0.00     0.285 C 
ATOM      6  C   UNL     1      26.339  10.642  -9.790  1.00  0.00     0.202 C 
ATOM      7  O   UNL     1      28.206  11.273  -8.351  1.00  0.00    -0.308 OA
ATOM      8  C   UNL     1      26.388  12.010 -10.459  1.00  0.00     0.183 C 
ATOM      9  C   UNL     1      27.800  12.588 -10.376  1.00  0.00     0.215 C 
BRANCH   5  10
ATOM     10  O   UNL     1      26.872   9.409  -7.823  1.00  0.00    -0.353 OA
ATOM     11  C   UNL     1      28.187   8.927  -7.576  1.00  0.00     0.198 C 
ENDBRANCH   5  10
BRANCH   6  12
ATOM     12  O   UNL     1      24.984  10.164  -9.807  1.00  0.00    -0.385 OA
ATOM     13  H   UNL     1      24.704  10.225 -10.743  1.00  0.00     0.211 HD
ENDBRANCH   6  12
BRANCH   8  14
ATOM     14  O   UNL     1      26.008  11.900 -11.843  1.00  0.00    -0.387 OA
ATOM     15  H   UNL     1      26.368  12.705 -12.269  1.00  0.00     0.211 HD
ENDBRANCH   8  14
BRANCH   9  16
ATOM     16  O   UNL     1      27.803  13.895 -10.962  1.00  0.00    -0.384 OA
ATOM     17  H   UNL     1      27.451  13.771 -11.866  1.00  0.00     0.211 HD
ENDBRANCH   9  16
ENDBRANCH   3   4
ENDBRANCH   1   3
BRANCH   1  18
ATOM     18  C   UNL     1      27.245  15.819  -8.078  1.00  0.00     0.067 A 
ATOM     19  C   UNL     1      25.851  15.634  -8.104  1.00  0.00     0.066 A 
ATOM     20  C   UNL     1      27.793  17.079  -8.365  1.00  0.00     0.066 A 
ATOM     21  C   UNL     1      25.021  16.706  -8.415  1.00  0.00     0.162 A 
ATOM     22  C   UNL     1      26.945  18.134  -8.674  1.00  0.00     0.162 A 
ATOM     23  C   UNL     1      25.568  17.952  -8.698  1.00  0.00     0.200 A 
BRANCH  21  24
ATOM     24  O   UNL     1      23.660  16.585  -8.453  1.00  0.00    -0.504 OA
ATOM     25  H   UNL     1      23.341  16.418  -7.547  1.00  0.00     0.293 HD
ENDBRANCH  21  24
BRANCH  22  26
ATOM     26  O   UNL     1      27.477  19.359  -8.956  1.00  0.00    -0.504 OA
ATOM     27  H   UNL     1      26.736  19.868  -9.345  1.00  0.00     0.293 HD
ENDBRANCH  22  26
BRANCH  23  28
ATOM     28  O   UNL     1      24.761  19.013  -9.006  1.00  0.00    -0.502 OA
ATOM     29  H   UNL     1      23.944  18.602  -9.356  1.00  0.00     0.293 HD
ENDBRANCH  23  28
ENDBRANCH   1  18
TORSDOF 10
ENDMDL
MODEL 6
REMARK VINA RESULT:    -6.838     11.051     14.126
REMARK INTER + INTRA:          -9.974
REMARK INTER:                  -9.282
REMARK INTRA:                  -0.692
REMARK UNBOUND:                -0.339
REMARK SMILES CO[C@H]1OC(OC(=O)c2cc(O)c(O)c(O)c2)[C@H](O)[C@@H](O)[C@@H]1O
REMARK SMILES IDX 7 1 8 2 6 3 5 4 3 5 22 6 4 7 20 8 18 9 2 10 1 11 23 12 21 14
REMARK SMILES IDX 19 16 9 18 17 19 10 20 15 21 11 22 13 23 16 24 12 26 14 28
REMARK H PARENT 23 13 21 15 19 17 16 25 12 27 14 29
ROOT
ATOM      1  C   UNL     1      24.563  20.474 -10.554  1.00  0.00     0.340 C 
ATOM      2  O   UNL     1      23.348  20.594 -10.549  1.00  0.00    -0.246 OA
ENDROOT
BRANCH   1   3
ATOM      3  O   UNL     1      25.264  19.317 -10.527  1.00  0.00    -0.429 OA
BRANCH   3   4
ATOM      4  C   UNL     1      25.160  18.554  -9.314  1.00  0.00     0.345 C 
ATOM      5  C   UNL     1      25.513  16.501 -10.473  1.00  0.00     0.285 C 
ATOM      6  C   UNL     1      26.899  16.304  -9.835  1.00  0.00     0.202 C 
ATOM      7  O   UNL     1      24.657  17.240  -9.608  1.00  0.00    -0.308 OA
ATOM      8  C   UNL     1      27.504  17.658  -9.483  1.00  0.00     0.183 C 
ATOM      9  C   UNL     1      26.534  18.460  -8.617  1.00  0.00     0.215 C 
BRANCH   5  10
ATOM     10  O   UNL     1      24.986  15.185 -10.706  1.00  0.00    -0.353 OA
ATOM     11  C   UNL     1      24.015  15.182 -11.745  1.00  0.00     0.198 C 
ENDBRANCH   5  10
BRANCH   6  12
ATOM     12  O   UNL     1      27.795  15.611 -10.719  1.00  0.00    -0.385 OA
ATOM     13  H   UNL     1      28.646  16.089 -10.648  1.00  0.00     0.211 HD
ENDBRANCH   6  12
BRANCH   8  14
ATOM     14  O   UNL     1      28.737  17.480  -8.765  1.00  0.00    -0.387 OA
ATOM     15  H   UNL     1      29.377  18.074  -9.209  1.00  0.00     0.211 HD
ENDBRANCH   8  14
BRANCH   9  16
ATOM     16  O   UNL     1      27.103  19.747  -8.350  1.00  0.00    -0.384 OA
ATOM     17  H   UNL     1      26.553  20.380  -8.853  1.00  0.00     0.211 HD
ENDBRANCH   9  16
ENDBRANCH   3   4
ENDBRANCH   1   3
BRANCH   1  18
ATOM     18  C   UNL     1      25.487  21.639 -10.602  1.00  0.00     0.067 A 
ATOM     19  C   UNL     1      26.512  21.621 -11.566  1.00  0.00     0.066 A 
ATOM     20  C   UNL     1      25.365  22.728  -9.725  1.00  0.00     0.066 A 
ATOM     21  C   UNL     1      27.400  22.689 -11.644  1.00  0.00     0.162 A 
ATOM     22  C   UNL     1      26.265  23.782  -9.821  1.00  0.00     0.162 A 
ATOM     23  C   UNL     1      27.275  23.765 -10.773  1.00  0.00     0.200 A 
BRANCH  21  24
ATOM     24  O   UNL     1      28.412  22.726 -12.561  1.00  0.00    -0.504 OA
ATOM     25  H   UNL     1      29.160  23.218 -12.174  1.00  0.00     0.293 HD
ENDBRANCH  21  24
BRANCH  22  26
ATOM     26  O   UNL     1      26.148  24.839  -8.967  1.00  0.00    -0.504 OA
ATOM     27  H   UNL     1      26.533  25.596  -9.454  1.00  0.00     0.293 HD
ENDBRANCH  22  26
BRANCH  23  28
ATOM     28  O   UNL     1      28.144  24.820 -10.840  1.00  0.00    -0.502 OA
ATOM     29  H   UNL     1      28.852  24.512 -11.443  1.00  0.00     0.293 HD
ENDBRANCH  23  28
ENDBRANCH   1  18
TORSDOF 10
ENDMDL
MODEL 7
REMARK VINA RESULT:    -6.813      7.904     11.900
REMARK INTER + INTRA:          -9.940
REMARK INTER:                  -9.341
REMARK INTRA:                  -0.598
REMARK UNBOUND:                -0.339
REMARK SMILES CO[C@H]1OC(OC(=O)c2cc(O)c(O)c(O)c2)[C@H](O)[C@@H](O)[C@@H]1O
REMARK SMILES IDX 7 1 8 2 6 3 5 4 3 5 22 6 4 7 20 8 18 9 2 10 1 11 23 12 21 14
REMARK SMILES IDX 19 16 9 18 17 19 10 20 15 21 11 22 13 23 16 24 12 26 14 28
REMARK H PARENT 23 13 21 15 19 17 16 25 12 27 14 29
ROOT
ATOM      1  C   UNL     1      28.135  12.211  -9.614  1.00  0.00     0.340 C 
ATOM      2  O   UNL     1      29.298  11.883  -9.442  1.00  0.00    -0.246 OA
ENDROOT
BRANCH   1   3
ATOM      3  O   UNL     1      27.618  13.457  -9.499  1.00  0.00    -0.429 OA
BRANCH   3   4
ATOM      4  C   UNL     1      27.225  13.848  -8.174  1.00  0.00     0.345 C 
ATOM      5  C   UNL     1      28.923  15.519  -8.070  1.00  0.00     0.285 C 
ATOM      6  C   UNL     1      27.893  16.661  -8.124  1.00  0.00     0.202 C 
ATOM      7  O   UNL     1      28.363  14.360  -7.461  1.00  0.00    -0.308 OA
ATOM      8  C   UNL     1      26.644  16.196  -8.863  1.00  0.00     0.183 C 
ATOM      9  C   UNL     1      26.107  14.911  -8.235  1.00  0.00     0.215 C 
BRANCH   5  10
ATOM     10  O   UNL     1      30.031  16.011  -7.301  1.00  0.00    -0.353 OA
ATOM     11  C   UNL     1      29.927  15.643  -5.931  1.00  0.00     0.198 C 
ENDBRANCH   5  10
BRANCH   6  12
ATOM     12  O   UNL     1      28.423  17.819  -8.790  1.00  0.00    -0.385 OA
ATOM     13  H   UNL     1      27.709  18.118  -9.389  1.00  0.00     0.211 HD
ENDBRANCH   6  12
BRANCH   8  14
ATOM     14  O   UNL     1      25.625  17.210  -8.801  1.00  0.00    -0.387 OA
ATOM     15  H   UNL     1      25.447  17.331  -7.846  1.00  0.00     0.211 HD
ENDBRANCH   8  14
BRANCH   9  16
ATOM     16  O   UNL     1      24.968  14.468  -8.983  1.00  0.00    -0.384 OA
ATOM     17  H   UNL     1      25.334  13.914  -9.701  1.00  0.00     0.211 HD
ENDBRANCH   9  16
ENDBRANCH   3   4
ENDBRANCH   1   3
BRANCH   1  18
ATOM     18  C   UNL     1      27.074  11.243 -10.001  1.00  0.00     0.067 A 
ATOM     19  C   UNL     1      26.876  11.003 -11.373  1.00  0.00     0.066 A 
ATOM     20  C   UNL     1      26.280  10.583  -9.049  1.00  0.00     0.066 A 
ATOM     21  C   UNL     1      25.893  10.107 -11.779  1.00  0.00     0.162 A 
ATOM     22  C   UNL     1      25.304   9.694  -9.479  1.00  0.00     0.162 A 
ATOM     23  C   UNL     1      25.110   9.455 -10.833  1.00  0.00     0.200 A 
BRANCH  21  24
ATOM     24  O   UNL     1      25.659   9.833 -13.097  1.00  0.00    -0.504 OA
ATOM     25  H   UNL     1      26.279   9.137 -13.381  1.00  0.00     0.293 HD
ENDBRANCH  21  24
BRANCH  22  26
ATOM     26  O   UNL     1      24.531   9.053  -8.555  1.00  0.00    -0.504 OA
ATOM     27  H   UNL     1      24.101   9.773  -8.049  1.00  0.00     0.293 HD
ENDBRANCH  22  26
BRANCH  23  28
ATOM     28  O   UNL     1      24.139   8.573 -11.221  1.00  0.00    -0.502 OA
ATOM     29  H   UNL     1      24.239   7.817 -10.605  1.00  0.00     0.293 HD
ENDBRANCH  23  28
ENDBRANCH   1  18
TORSDOF 10
ENDMDL
MODEL 8
REMARK VINA RESULT:    -6.764      9.229     11.205
REMARK INTER + INTRA:          -9.871
REMARK INTER:                  -9.153
REMARK INTRA:                  -0.718
REMARK UNBOUND:                -0.339
REMARK SMILES CO[C@H]1OC(OC(=O)c2cc(O)c(O)c(O)c2)[C@H](O)[C@@H](O)[C@@H]1O
REMARK SMILES IDX 7 1 8 2 6 3 5 4 3 5 22 6 4 7 20 8 18 9 2 10 1 11 23 12 21 14
REMARK SMILES IDX 19 16 9 18 17 19 10 20 15 21 11 22 13 23 16 24 12 26 14 28
REMARK H PARENT 23 13 21 15 19 17 16 25 12 27 14 29
ROOT
ATOM      1  C   UNL     1      28.124  14.612  -8.101  1.00  0.00     0.340 C 
ATOM      2  O   UNL     1      29.272  14.773  -7.722  1.00  0.00    -0.246 OA
ENDROOT
BRANCH   1   3
ATOM      3  O   UNL     1      27.505  13.431  -8.335  1.00  0.00    -0.429 OA
BRANCH   3   4
ATOM      4  C   UNL     1      27.884  12.757  -9.545  1.00  0.00     0.345 C 
ATOM      5  C   UNL     1      28.407  10.752  -8.365  1.00  0.00     0.285 C 
ATOM      6  C   UNL     1      27.206  10.006  -8.971  1.00  0.00     0.202 C 
ATOM      7  O   UNL     1      28.878  11.760  -9.254  1.00  0.00    -0.308 OA
ATOM      8  C   UNL     1      26.102  10.997  -9.317  1.00  0.00     0.183 C 
ATOM      9  C   UNL     1      26.652  12.109 -10.210  1.00  0.00     0.215 C 
BRANCH   5  10
ATOM     10  O   UNL     1      29.423   9.763  -8.136  1.00  0.00    -0.353 OA
ATOM     11  C   UNL     1      30.050   9.360  -9.348  1.00  0.00     0.198 C 
ENDBRANCH   5  10
BRANCH   6  12
ATOM     12  O   UNL     1      26.681   9.024  -8.063  1.00  0.00    -0.385 OA
ATOM     13  H   UNL     1      26.848   8.161  -8.494  1.00  0.00     0.211 HD
ENDBRANCH   6  12
BRANCH   8  14
ATOM     14  O   UNL     1      25.031  10.328 -10.007  1.00  0.00    -0.387 OA
ATOM     15  H   UNL     1      25.439   9.977 -10.826  1.00  0.00     0.211 HD
ENDBRANCH   8  14
BRANCH   9  16
ATOM     16  O   UNL     1      25.608  13.054 -10.472  1.00  0.00    -0.384 OA
ATOM     17  H   UNL     1      25.960  13.915 -10.169  1.00  0.00     0.211 HD
ENDBRANCH   9  16
ENDBRANCH   3   4
ENDBRANCH   1   3
BRANCH   1  18
ATOM     18  C   UNL     1      27.196  15.745  -8.365  1.00  0.00     0.067 A 
ATOM     19  C   UNL     1      27.761  16.985  -8.714  1.00  0.00     0.066 A 
ATOM     20  C   UNL     1      25.802  15.608  -8.271  1.00  0.00     0.066 A 
ATOM     21  C   UNL     1      26.930  18.072  -8.966  1.00  0.00     0.162 A 
ATOM     22  C   UNL     1      24.993  16.708  -8.527  1.00  0.00     0.162 A 
ATOM     23  C   UNL     1      25.550  17.931  -8.873  1.00  0.00     0.200 A 
BRANCH  21  24
ATOM     24  O   UNL     1      27.423  19.299  -9.312  1.00  0.00    -0.504 OA
ATOM     25  H   UNL     1      27.730  19.746  -8.501  1.00  0.00     0.293 HD
ENDBRANCH  21  24
BRANCH  22  26
ATOM     26  O   UNL     1      23.638  16.576  -8.434  1.00  0.00    -0.504 OA
ATOM     27  H   UNL     1      23.349  17.346  -7.902  1.00  0.00     0.293 HD
ENDBRANCH  22  26
BRANCH  23  28
ATOM     28  O   UNL     1      24.724  18.994  -9.118  1.00  0.00    -0.502 OA
ATOM     29  H   UNL     1      24.175  19.065  -8.310  1.00  0.00     0.293 HD
ENDBRANCH  23  28
ENDBRANCH   1  18
TORSDOF 10
ENDMDL
MODEL 9
REMARK VINA RESULT:    -6.533      8.032     11.954
REMARK INTER + INTRA:          -9.546
REMARK INTER:                  -9.035
REMARK INTRA:                  -0.510
REMARK UNBOUND:                -0.339
REMARK SMILES CO[C@H]1OC(OC(=O)c2cc(O)c(O)c(O)c2)[C@H](O)[C@@H](O)[C@@H]1O
REMARK SMILES IDX 7 1 8 2 6 3 5 4 3 5 22 6 4 7 20 8 18 9 2 10 1 11 23 12 21 14
REMARK SMILES IDX 19 16 9 18 17 19 10 20 15 21 11 22 13 23 16 24 12 26 14 28
REMARK H PARENT 23 13 21 15 19 17 16 25 12 27 14 29
ROOT
ATOM      1  C   UNL     1      26.292  18.765  -7.756  1.00  0.00     0.340 C 
ATOM      2  O   UNL     1      26.683  19.008  -6.626  1.00  0.00    -0.246 OA
ENDROOT
BRANCH   1   3
ATOM      3  O   UNL     1      26.400  17.589  -8.417  1.00  0.00    -0.429 OA
BRANCH   3   4
ATOM      4  C   UNL     1      27.598  17.416  -9.190  1.00  0.00     0.345 C 
ATOM      5  C   UNL     1      28.498  15.873  -7.610  1.00  0.00     0.285 C 
ATOM      6  C   UNL     1      28.350  14.690  -8.584  1.00  0.00     0.202 C 
ATOM      7  O   UNL     1      28.695  17.092  -8.320  1.00  0.00    -0.308 OA
ATOM      8  C   UNL     1      27.205  14.958  -9.553  1.00  0.00     0.183 C 
ATOM      9  C   UNL     1      27.403  16.306 -10.245  1.00  0.00     0.215 C 
BRANCH   5  10
ATOM     10  O   UNL     1      29.635  15.576  -6.785  1.00  0.00    -0.353 OA
ATOM     11  C   UNL     1      29.283  15.500  -5.409  1.00  0.00     0.198 C 
ENDBRANCH   5  10
BRANCH   6  12
ATOM     12  O   UNL     1      28.091  13.461  -7.886  1.00  0.00    -0.385 OA
ATOM     13  H   UNL     1      28.924  13.255  -7.414  1.00  0.00     0.211 HD
ENDBRANCH   6  12
BRANCH   8  14
ATOM     14  O   UNL     1      27.146  13.923 -10.550  1.00  0.00    -0.387 OA
ATOM     15  H   UNL     1      28.011  13.964 -11.008  1.00  0.00     0.211 HD
ENDBRANCH   8  14
BRANCH   9  16
ATOM     16  O   UNL     1      26.286  16.556 -11.106  1.00  0.00    -0.384 OA
ATOM     17  H   UNL     1      25.856  15.685 -11.226  1.00  0.00     0.211 HD
ENDBRANCH   9  16
ENDBRANCH   3   4
ENDBRANCH   1   3
BRANCH   1  18
ATOM     18  C   UNL     1      25.602  19.774  -8.604  1.00  0.00     0.067 A 
ATOM     19  C   UNL     1      25.736  21.129  -8.248  1.00  0.00     0.066 A 
ATOM     20  C   UNL     1      24.834  19.413  -9.722  1.00  0.00     0.066 A 
ATOM     21  C   UNL     1      25.105  22.105  -9.012  1.00  0.00     0.162 A 
ATOM     22  C   UNL     1      24.213  20.406 -10.469  1.00  0.00     0.162 A 
ATOM     23  C   UNL     1      24.346  21.743 -10.119  1.00  0.00     0.200 A 
BRANCH  21  24
ATOM     24  O   UNL     1      25.203  23.435  -8.715  1.00  0.00    -0.504 OA
ATOM     25  H   UNL     1      25.774  23.535  -7.931  1.00  0.00     0.293 HD
ENDBRANCH  21  24
BRANCH  22  26
ATOM     26  O   UNL     1      23.464  20.055 -11.555  1.00  0.00    -0.504 OA
ATOM     27  H   UNL     1      22.642  19.680 -11.179  1.00  0.00     0.293 HD
ENDBRANCH  22  26
BRANCH  23  28
ATOM     28  O   UNL     1      23.721  22.695 -10.876  1.00  0.00    -0.502 OA
ATOM     29  H   UNL     1      22.775  22.441 -10.852  1.00  0.00     0.293 HD
ENDBRANCH  23  28
ENDBRANCH   1  18
TORSDOF 10
ENDMDL
