MODEL 1
REMARK VINA RESULT:    -7.764      0.000      0.000
REMARK INTER + INTRA:         -11.583
REMARK INTER:                 -11.167
REMARK INTRA:                  -0.416
REMARK UNBOUND:                -0.416
REMARK SMILES O=C([O-])C1=CO[C@@H](O[C@@H]2O[C@H](CO)[C@@H](O)[C@H](O)[C@H]2O)[C@@H]2[C@@H](CO)CC[C@H]12
REMARK SMILES IDX 8 1 7 2 24 3 25 4 21 5 26 6 20 7 4 8 5 9 6 10 22 11 23 12
REMARK SMILES IDX 2 14 1 15 3 16 9 17 18 18 10 19 16 20 11 21 14 22 19 23
REMARK SMILES IDX 17 25 12 27 13 28 15 30
REMARK H PARENT 23 13 19 24 17 26 13 29 15 31
ROOT
ATOM      1  O   UNL     1      28.394  13.829  -8.524  1.00  0.00    -0.310 OA
ENDROOT
BRANCH   1   2
ATOM      2  C   UNL     1      28.085  15.228  -8.425  1.00  0.00     0.313 C 
ATOM      3  C   UNL     1      26.152  16.764  -5.541  1.00  0.00     0.007 C 
ATOM      4  C   UNL     1      27.199  15.922  -4.815  1.00  0.00     0.009 C 
ATOM      5  C   UNL     1      26.650  16.843  -6.980  1.00  0.00     0.024 C 
ATOM      6  C   UNL     1      27.954  15.119  -5.896  1.00  0.00     0.034 C 
ATOM      7  C   UNL     1      27.184  15.418  -7.203  1.00  0.00     0.071 C 
ATOM      8  C   UNL     1      29.402  15.518  -6.012  1.00  0.00     0.013 C 
ATOM      9  C   UNL     1      29.930  15.962  -7.160  1.00  0.00     0.196 C 
ATOM     10  O   UNL     1      29.270  16.036  -8.360  1.00  0.00    -0.472 OA
BRANCH   5  11
ATOM     11  C   UNL     1      25.553  17.266  -7.947  1.00  0.00     0.160 C 
BRANCH  11  12
ATOM     12  O   UNL     1      24.361  16.525  -7.721  1.00  0.00    -0.396 OA
ATOM     13  H   UNL     1      24.619  15.593  -7.605  1.00  0.00     0.210 HD
ENDBRANCH  11  12
ENDBRANCH   5  11
BRANCH   8  14
ATOM     14  C   UNL     1      30.306  15.406  -4.768  1.00  0.00     0.071 C 
ATOM     15  O   UNL     1      29.717  15.140  -3.683  1.00  0.00    -0.545 OA
ATOM     16  O   UNL     1      31.535  15.600  -4.991  1.00  0.00    -0.545 OA
ENDBRANCH   8  14
ENDBRANCH   1   2
BRANCH   1  17
ATOM     17  C   UNL     1      27.367  13.091  -9.178  1.00  0.00     0.286 C 
ATOM     18  C   UNL     1      27.899  12.780 -10.589  1.00  0.00     0.202 C 
ATOM     19  O   UNL     1      27.109  11.883  -8.458  1.00  0.00    -0.341 OA
ATOM     20  C   UNL     1      26.907  11.887 -11.325  1.00  0.00     0.179 C 
ATOM     21  C   UNL     1      26.116  11.064  -9.101  1.00  0.00     0.178 C 
ATOM     22  C   UNL     1      26.585  10.642 -10.499  1.00  0.00     0.177 C 
BRANCH  18  23
ATOM     23  O   UNL     1      28.093  13.967 -11.373  1.00  0.00    -0.385 OA
ATOM     24  H   UNL     1      29.062  14.047 -11.517  1.00  0.00     0.211 HD
ENDBRANCH  18  23
BRANCH  20  25
ATOM     25  O   UNL     1      27.442  11.481 -12.597  1.00  0.00    -0.387 OA
ATOM     26  H   UNL     1      28.414  11.549 -12.481  1.00  0.00     0.211 HD
ENDBRANCH  20  25
BRANCH  21  27
ATOM     27  C   UNL     1      25.877   9.845  -8.203  1.00  0.00     0.191 C 
BRANCH  27  28
ATOM     28  O   UNL     1      24.621   9.245  -8.527  1.00  0.00    -0.394 OA
ATOM     29  H   UNL     1      24.471   8.565  -7.839  1.00  0.00     0.210 HD
ENDBRANCH  27  28
ENDBRANCH  21  27
BRANCH  22  30
ATOM     30  O   UNL     1      25.588   9.873 -11.177  1.00  0.00    -0.387 OA
ATOM     31  H   UNL     1      25.666   8.972 -10.799  1.00  0.00     0.211 HD
ENDBRANCH  22  30
ENDBRANCH   1  17
TORSDOF 10
ENDMDL
MODEL 2
REMARK VINA RESULT:    -7.671      1.221      2.093
REMARK INTER + INTRA:         -11.451
REMARK INTER:                 -11.018
REMARK INTRA:                  -0.433
REMARK UNBOUND:                -0.416
REMARK SMILES O=C([O-])C1=CO[C@@H](O[C@@H]2O[C@H](CO)[C@@H](O)[C@H](O)[C@H]2O)[C@@H]2[C@@H](CO)CC[C@H]12
REMARK SMILES IDX 8 1 7 2 24 3 25 4 21 5 26 6 20 7 4 8 5 9 6 10 22 11 23 12
REMARK SMILES IDX 2 14 1 15 3 16 9 17 18 18 10 19 16 20 11 21 14 22 19 23
REMARK SMILES IDX 17 25 12 27 13 28 15 30
REMARK H PARENT 23 13 19 24 17 26 13 29 15 31
ROOT
ATOM      1  O   UNL     1      28.578  13.691  -8.341  1.00  0.00    -0.310 OA
ENDROOT
BRANCH   1   2
ATOM      2  C   UNL     1      28.238  15.085  -8.304  1.00  0.00     0.313 C 
ATOM      3  C   UNL     1      26.197  16.688  -5.532  1.00  0.00     0.007 C 
ATOM      4  C   UNL     1      27.242  15.898  -4.748  1.00  0.00     0.009 C 
ATOM      5  C   UNL     1      26.731  16.723  -6.960  1.00  0.00     0.024 C 
ATOM      6  C   UNL     1      28.042  15.070  -5.777  1.00  0.00     0.034 C 
ATOM      7  C   UNL     1      27.301  15.302  -7.113  1.00  0.00     0.071 C 
ATOM      8  C   UNL     1      29.483  15.497  -5.871  1.00  0.00     0.013 C 
ATOM      9  C   UNL     1      30.032  15.908  -7.022  1.00  0.00     0.196 C 
ATOM     10  O   UNL     1      29.403  15.921  -8.241  1.00  0.00    -0.472 OA
BRANCH   5  11
ATOM     11  C   UNL     1      25.651  17.084  -7.971  1.00  0.00     0.160 C 
BRANCH  11  12
ATOM     12  O   UNL     1      24.465  16.335  -7.739  1.00  0.00    -0.396 OA
ATOM     13  H   UNL     1      24.730  15.502  -7.308  1.00  0.00     0.210 HD
ENDBRANCH  11  12
ENDBRANCH   5  11
BRANCH   8  14
ATOM     14  C   UNL     1      30.357  15.452  -4.601  1.00  0.00     0.071 C 
ATOM     15  O   UNL     1      29.734  15.312  -3.511  1.00  0.00    -0.545 OA
ATOM     16  O   UNL     1      31.598  15.568  -4.811  1.00  0.00    -0.545 OA
ENDBRANCH   8  14
ENDBRANCH   1   2
BRANCH   1  17
ATOM     17  C   UNL     1      28.134  13.055  -9.534  1.00  0.00     0.286 C 
ATOM     18  C   UNL     1      27.873  11.584  -9.161  1.00  0.00     0.202 C 
ATOM     19  O   UNL     1      26.934  13.680  -9.995  1.00  0.00    -0.341 OA
ATOM     20  C   UNL     1      27.280  10.850 -10.358  1.00  0.00     0.179 C 
ATOM     21  C   UNL     1      26.403  13.045 -11.173  1.00  0.00     0.178 C 
ATOM     22  C   UNL     1      26.044  11.582 -10.883  1.00  0.00     0.177 C 
BRANCH  18  23
ATOM     23  O   UNL     1      29.072  10.899  -8.771  1.00  0.00    -0.385 OA
ATOM     24  H   UNL     1      29.807  11.541  -8.889  1.00  0.00     0.211 HD
ENDBRANCH  18  23
BRANCH  20  25
ATOM     25  O   UNL     1      26.910   9.509  -9.994  1.00  0.00    -0.387 OA
ATOM     26  H   UNL     1      27.246   9.407  -9.077  1.00  0.00     0.211 HD
ENDBRANCH  20  25
BRANCH  21  27
ATOM     27  C   UNL     1      25.170  13.844 -11.607  1.00  0.00     0.191 C 
BRANCH  27  28
ATOM     28  O   UNL     1      24.738  14.687 -10.536  1.00  0.00    -0.394 OA
ATOM     29  H   UNL     1      24.204  15.391 -10.956  1.00  0.00     0.210 HD
ENDBRANCH  27  28
ENDBRANCH  21  27
BRANCH  22  30
ATOM     30  O   UNL     1      25.568  10.917 -12.056  1.00  0.00    -0.387 OA
ATOM     31  H   UNL     1      25.762   9.969 -11.902  1.00  0.00     0.211 HD
ENDBRANCH  22  30
ENDBRANCH   1  17
TORSDOF 10
ENDMDL
MODEL 3
REMARK VINA RESULT:    -7.503      3.996      7.543
REMARK INTER + INTRA:         -11.208
REMARK INTER:                 -10.007
REMARK INTRA:                  -1.201
REMARK UNBOUND:                -0.416
REMARK SMILES O=C([O-])C1=CO[C@@H](O[C@@H]2O[C@H](CO)[C@@H](O)[C@H](O)[C@H]2O)[C@@H]2[C@@H](CO)CC[C@H]12
REMARK SMILES IDX 8 1 7 2 24 3 25 4 21 5 26 6 20 7 4 8 5 9 6 10 22 11 23 12
REMARK SMILES IDX 2 14 1 15 3 16 9 17 18 18 10 19 16 20 11 21 14 22 19 23
REMARK SMILES IDX 17 25 12 27 13 28 15 30
REMARK H PARENT 23 13 19 24 17 26 13 29 15 31
ROOT
ATOM      1  O   UNL     1      26.241  18.577 -10.329  1.00  0.00    -0.310 OA
ENDROOT
BRANCH   1   2
ATOM      2  C   UNL     1      26.855  18.754  -9.044  1.00  0.00     0.313 C 
ATOM      3  C   UNL     1      25.609  17.099  -5.862  1.00  0.00     0.007 C 
ATOM      4  C   UNL     1      25.662  15.925  -6.837  1.00  0.00     0.009 C 
ATOM      5  C   UNL     1      26.412  18.202  -6.542  1.00  0.00     0.024 C 
ATOM      6  C   UNL     1      26.011  16.510  -8.223  1.00  0.00     0.034 C 
ATOM      7  C   UNL     1      25.981  18.041  -8.010  1.00  0.00     0.071 C 
ATOM      8  C   UNL     1      27.356  16.055  -8.724  1.00  0.00     0.013 C 
ATOM      9  C   UNL     1      28.330  16.919  -9.041  1.00  0.00     0.196 C 
ATOM     10  O   UNL     1      28.213  18.286  -9.027  1.00  0.00    -0.472 OA
BRANCH   5  11
ATOM     11  C   UNL     1      26.127  19.574  -5.946  1.00  0.00     0.160 C 
BRANCH  11  12
ATOM     12  O   UNL     1      25.541  20.438  -6.912  1.00  0.00    -0.396 OA
ATOM     13  H   UNL     1      26.264  20.957  -7.310  1.00  0.00     0.210 HD
ENDBRANCH  11  12
ENDBRANCH   5  11
BRANCH   8  14
ATOM     14  C   UNL     1      27.618  14.543  -8.884  1.00  0.00     0.071 C 
ATOM     15  O   UNL     1      26.760  13.906  -9.556  1.00  0.00    -0.545 OA
ATOM     16  O   UNL     1      28.666  14.127  -8.313  1.00  0.00    -0.545 OA
ENDBRANCH   8  14
ENDBRANCH   1   2
BRANCH   1  17
ATOM     17  C   UNL     1      25.728  19.794 -10.859  1.00  0.00     0.286 C 
ATOM     18  C   UNL     1      24.207  19.594 -10.990  1.00  0.00     0.202 C 
ATOM     19  O   UNL     1      26.020  20.870  -9.962  1.00  0.00    -0.341 OA
ATOM     20  C   UNL     1      23.557  20.897 -11.443  1.00  0.00     0.179 C 
ATOM     21  C   UNL     1      25.478  22.124 -10.416  1.00  0.00     0.178 C 
ATOM     22  C   UNL     1      23.950  22.048 -10.516  1.00  0.00     0.177 C 
BRANCH  18  23
ATOM     23  O   UNL     1      23.872  18.576 -11.945  1.00  0.00    -0.385 OA
ATOM     24  H   UNL     1      22.891  18.520 -11.954  1.00  0.00     0.211 HD
ENDBRANCH  18  23
BRANCH  20  25
ATOM     25  O   UNL     1      22.125  20.768 -11.451  1.00  0.00    -0.387 OA
ATOM     26  H   UNL     1      21.967  19.823 -11.238  1.00  0.00     0.211 HD
ENDBRANCH  20  25
BRANCH  21  27
ATOM     27  C   UNL     1      25.917  23.200  -9.418  1.00  0.00     0.191 C 
BRANCH  27  28
ATOM     28  O   UNL     1      25.078  23.158  -8.261  1.00  0.00    -0.394 OA
ATOM     29  H   UNL     1      24.161  23.192  -8.602  1.00  0.00     0.210 HD
ENDBRANCH  27  28
ENDBRANCH  21  27
BRANCH  22  30
ATOM     30  O   UNL     1      23.395  23.266 -11.020  1.00  0.00    -0.387 OA
ATOM     31  H   UNL     1      22.774  23.564 -10.323  1.00  0.00     0.211 HD
ENDBRANCH  22  30
ENDBRANCH   1  17
TORSDOF 10
ENDMDL
MODEL 4
REMARK VINA RESULT:    -7.501      3.707      6.673
REMARK INTER + INTRA:         -11.205
REMARK INTER:                 -10.512
REMARK INTRA:                  -0.693
REMARK UNBOUND:                -0.416
REMARK SMILES O=C([O-])C1=CO[C@@H](O[C@@H]2O[C@H](CO)[C@@H](O)[C@H](O)[C@H]2O)[C@@H]2[C@@H](CO)CC[C@H]12
REMARK SMILES IDX 8 1 7 2 24 3 25 4 21 5 26 6 20 7 4 8 5 9 6 10 22 11 23 12
REMARK SMILES IDX 2 14 1 15 3 16 9 17 18 18 10 19 16 20 11 21 14 22 19 23
REMARK SMILES IDX 17 25 12 27 13 28 15 30
REMARK H PARENT 23 13 19 24 17 26 13 29 15 31
ROOT
ATOM      1  O   UNL     1      25.934  18.542  -8.175  1.00  0.00    -0.310 OA
ENDROOT
BRANCH   1   2
ATOM      2  C   UNL     1      26.094  18.648  -9.598  1.00  0.00     0.313 C 
ATOM      3  C   UNL     1      23.362  19.846 -11.947  1.00  0.00     0.007 C 
ATOM      4  C   UNL     1      23.353  20.923 -10.865  1.00  0.00     0.009 C 
ATOM      5  C   UNL     1      24.667  19.089 -11.726  1.00  0.00     0.024 C 
ATOM      6  C   UNL     1      24.326  20.456  -9.761  1.00  0.00     0.034 C 
ATOM      7  C   UNL     1      24.736  19.029 -10.190  1.00  0.00     0.071 C 
ATOM      8  C   UNL     1      25.530  21.353  -9.630  1.00  0.00     0.013 C 
ATOM      9  C   UNL     1      26.780  20.893  -9.765  1.00  0.00     0.196 C 
ATOM     10  O   UNL     1      27.126  19.579  -9.955  1.00  0.00    -0.472 OA
BRANCH   5  11
ATOM     11  C   UNL     1      24.668  17.729 -12.412  1.00  0.00     0.160 C 
BRANCH  11  12
ATOM     12  O   UNL     1      24.085  16.737 -11.577  1.00  0.00    -0.396 OA
ATOM     13  H   UNL     1      23.640  16.095 -12.160  1.00  0.00     0.210 HD
ENDBRANCH  11  12
ENDBRANCH   5  11
BRANCH   8  14
ATOM     14  C   UNL     1      25.313  22.849  -9.324  1.00  0.00     0.071 C 
ATOM     15  O   UNL     1      25.255  23.612 -10.329  1.00  0.00    -0.545 OA
ATOM     16  O   UNL     1      25.224  23.127  -8.094  1.00  0.00    -0.545 OA
ENDBRANCH   8  14
ENDBRANCH   1   2
BRANCH   1  17
ATOM     17  C   UNL     1      26.369  17.285  -7.671  1.00  0.00     0.286 C 
ATOM     18  C   UNL     1      25.660  16.216  -8.521  1.00  0.00     0.202 C 
ATOM     19  O   UNL     1      27.789  17.178  -7.806  1.00  0.00    -0.341 OA
ATOM     20  C   UNL     1      26.160  14.831  -8.125  1.00  0.00     0.179 C 
ATOM     21  C   UNL     1      28.286  15.901  -7.362  1.00  0.00     0.178 C 
ATOM     22  C   UNL     1      27.686  14.766  -8.200  1.00  0.00     0.177 C 
BRANCH  18  23
ATOM     23  O   UNL     1      24.235  16.239  -8.348  1.00  0.00    -0.385 OA
ATOM     24  H   UNL     1      23.898  16.956  -8.931  1.00  0.00     0.211 HD
ENDBRANCH  18  23
BRANCH  20  25
ATOM     25  O   UNL     1      25.604  13.828  -8.993  1.00  0.00    -0.387 OA
ATOM     26  H   UNL     1      26.365  13.537  -9.541  1.00  0.00     0.211 HD
ENDBRANCH  20  25
BRANCH  21  27
ATOM     27  C   UNL     1      29.813  15.937  -7.488  1.00  0.00     0.191 C 
BRANCH  27  28
ATOM     28  O   UNL     1      30.409  15.599  -6.233  1.00  0.00    -0.394 OA
ATOM     29  H   UNL     1      29.668  15.545  -5.597  1.00  0.00     0.210 HD
ENDBRANCH  27  28
ENDBRANCH  21  27
BRANCH  22  30
ATOM     30  O   UNL     1      28.124  13.485  -7.738  1.00  0.00    -0.387 OA
ATOM     31  H   UNL     1      29.069  13.611  -7.512  1.00  0.00     0.211 HD
ENDBRANCH  22  30
ENDBRANCH   1  17
TORSDOF 10
ENDMDL
MODEL 5
REMARK VINA RESULT:    -7.177      3.952      7.630
REMARK INTER + INTRA:         -10.740
REMARK INTER:                  -9.770
REMARK INTRA:                  -0.969
REMARK UNBOUND:                -0.416
REMARK SMILES O=C([O-])C1=CO[C@@H](O[C@@H]2O[C@H](CO)[C@@H](O)[C@H](O)[C@H]2O)[C@@H]2[C@@H](CO)CC[C@H]12
REMARK SMILES IDX 8 1 7 2 24 3 25 4 21 5 26 6 20 7 4 8 5 9 6 10 22 11 23 12
REMARK SMILES IDX 2 14 1 15 3 16 9 17 18 18 10 19 16 20 11 21 14 22 19 23
REMARK SMILES IDX 17 25 12 27 13 28 15 30
REMARK H PARENT 23 13 19 24 17 26 13 29 15 31
ROOT
ATOM      1  O   UNL     1      26.917  18.605  -8.779  1.00  0.00    -0.310 OA
ENDROOT
BRANCH   1   2
ATOM      2  C   UNL     1      26.068  17.454  -8.657  1.00  0.00     0.313 C 
ATOM      3  C   UNL     1      27.186  13.910  -9.437  1.00  0.00     0.007 C 
ATOM      4  C   UNL     1      28.314  14.415  -8.539  1.00  0.00     0.009 C 
ATOM      5  C   UNL     1      26.061  14.923  -9.249  1.00  0.00     0.024 C 
ATOM      6  C   UNL     1      28.045  15.913  -8.282  1.00  0.00     0.034 C 
ATOM      7  C   UNL     1      26.841  16.248  -9.193  1.00  0.00     0.071 C 
ATOM      8  C   UNL     1      27.734  16.208  -6.838  1.00  0.00     0.013 C 
ATOM      9  C   UNL     1      26.591  16.794  -6.459  1.00  0.00     0.196 C 
ATOM     10  O   UNL     1      25.618  17.259  -7.307  1.00  0.00    -0.472 OA
BRANCH   5  11
ATOM     11  C   UNL     1      25.024  14.846 -10.361  1.00  0.00     0.160 C 
BRANCH  11  12
ATOM     12  O   UNL     1      25.172  13.648 -11.113  1.00  0.00    -0.396 OA
ATOM     13  H   UNL     1      24.440  13.620 -11.756  1.00  0.00     0.210 HD
ENDBRANCH  11  12
ENDBRANCH   5  11
BRANCH   8  14
ATOM     14  C   UNL     1      28.772  15.829  -5.761  1.00  0.00     0.071 C 
ATOM     15  O   UNL     1      28.301  15.496  -4.638  1.00  0.00    -0.545 OA
ATOM     16  O   UNL     1      29.975  15.903  -6.141  1.00  0.00    -0.545 OA
ENDBRANCH   8  14
ENDBRANCH   1   2
BRANCH   1  17
ATOM     17  C   UNL     1      26.258  19.704  -9.397  1.00  0.00     0.286 C 
ATOM     18  C   UNL     1      26.039  20.748  -8.287  1.00  0.00     0.202 C 
ATOM     19  O   UNL     1      27.082  20.238 -10.437  1.00  0.00    -0.341 OA
ATOM     20  C   UNL     1      25.439  22.015  -8.886  1.00  0.00     0.179 C 
ATOM     21  C   UNL     1      26.492  21.391 -11.066  1.00  0.00     0.178 C 
ATOM     22  C   UNL     1      26.295  22.521 -10.048  1.00  0.00     0.177 C 
BRANCH  18  23
ATOM     23  O   UNL     1      25.149  20.278  -7.264  1.00  0.00    -0.385 OA
ATOM     24  H   UNL     1      24.822  19.401  -7.564  1.00  0.00     0.211 HD
ENDBRANCH  18  23
BRANCH  20  25
ATOM     25  O   UNL     1      25.345  23.048  -7.890  1.00  0.00    -0.387 OA
ATOM     26  H   UNL     1      24.470  23.462  -8.055  1.00  0.00     0.211 HD
ENDBRANCH  20  25
BRANCH  21  27
ATOM     27  C   UNL     1      27.428  21.821 -12.200  1.00  0.00     0.191 C 
BRANCH  27  28
ATOM     28  O   UNL     1      28.227  22.927 -11.775  1.00  0.00    -0.394 OA
ATOM     29  H   UNL     1      28.539  23.356 -12.597  1.00  0.00     0.210 HD
ENDBRANCH  27  28
ENDBRANCH  21  27
BRANCH  22  30
ATOM     30  O   UNL     1      25.658  23.655 -10.641  1.00  0.00    -0.387 OA
ATOM     31  H   UNL     1      26.307  23.994 -11.293  1.00  0.00     0.211 HD
ENDBRANCH  22  30
ENDBRANCH   1  17
TORSDOF 10
ENDMDL
MODEL 6
REMARK VINA RESULT:    -6.951      3.483      6.720
REMARK INTER + INTRA:         -10.414
REMARK INTER:                  -9.538
REMARK INTRA:                  -0.876
REMARK UNBOUND:                -0.416
REMARK SMILES O=C([O-])C1=CO[C@@H](O[C@@H]2O[C@H](CO)[C@@H](O)[C@H](O)[C@H]2O)[C@@H]2[C@@H](CO)CC[C@H]12
REMARK SMILES IDX 8 1 7 2 24 3 25 4 21 5 26 6 20 7 4 8 5 9 6 10 22 11 23 12
REMARK SMILES IDX 2 14 1 15 3 16 9 17 18 18 10 19 16 20 11 21 14 22 19 23
REMARK SMILES IDX 17 25 12 27 13 28 15 30
REMARK H PARENT 23 13 19 24 17 26 13 29 15 31
ROOT
ATOM      1  O   UNL     1      27.585  18.262  -8.741  1.00  0.00    -0.310 OA
ENDROOT
BRANCH   1   2
ATOM      2  C   UNL     1      26.527  17.353  -8.402  1.00  0.00     0.313 C 
ATOM      3  C   UNL     1      26.769  13.585  -8.805  1.00  0.00     0.007 C 
ATOM      4  C   UNL     1      28.068  13.916  -8.074  1.00  0.00     0.009 C 
ATOM      5  C   UNL     1      25.914  14.840  -8.658  1.00  0.00     0.024 C 
ATOM      6  C   UNL     1      28.156  15.455  -7.992  1.00  0.00     0.034 C 
ATOM      7  C   UNL     1      26.962  15.953  -8.838  1.00  0.00     0.071 C 
ATOM      8  C   UNL     1      28.073  15.968  -6.578  1.00  0.00     0.013 C 
ATOM      9  C   UNL     1      27.130  16.834  -6.187  1.00  0.00     0.196 C 
ATOM     10  O   UNL     1      26.194  17.412  -7.006  1.00  0.00    -0.472 OA
BRANCH   5  11
ATOM     11  C   UNL     1      24.771  14.879  -9.664  1.00  0.00     0.160 C 
BRANCH  11  12
ATOM     12  O   UNL     1      25.229  15.308 -10.940  1.00  0.00    -0.396 OA
ATOM     13  H   UNL     1      26.159  15.578 -10.836  1.00  0.00     0.210 HD
ENDBRANCH  11  12
ENDBRANCH   5  11
BRANCH   8  14
ATOM     14  C   UNL     1      29.115  15.482  -5.549  1.00  0.00     0.071 C 
ATOM     15  O   UNL     1      28.651  15.071  -4.450  1.00  0.00    -0.545 OA
ATOM     16  O   UNL     1      30.315  15.563  -5.938  1.00  0.00    -0.545 OA
ENDBRANCH   8  14
ENDBRANCH   1   2
BRANCH   1  17
ATOM     17  C   UNL     1      27.130  19.357  -9.528  1.00  0.00     0.286 C 
ATOM     18  C   UNL     1      26.119  18.772 -10.529  1.00  0.00     0.202 C 
ATOM     19  O   UNL     1      26.502  20.327  -8.684  1.00  0.00    -0.341 OA
ATOM     20  C   UNL     1      25.489  19.899 -11.340  1.00  0.00     0.179 C 
ATOM     21  C   UNL     1      25.970  21.438  -9.430  1.00  0.00     0.178 C 
ATOM     22  C   UNL     1      24.896  20.963 -10.416  1.00  0.00     0.177 C 
BRANCH  18  23
ATOM     23  O   UNL     1      26.730  17.854 -11.447  1.00  0.00    -0.385 OA
ATOM     24  H   UNL     1      27.047  18.392 -12.206  1.00  0.00     0.211 HD
ENDBRANCH  18  23
BRANCH  20  25
ATOM     25  O   UNL     1      24.451  19.387 -12.193  1.00  0.00    -0.387 OA
ATOM     26  H   UNL     1      24.475  18.417 -12.045  1.00  0.00     0.211 HD
ENDBRANCH  20  25
BRANCH  21  27
ATOM     27  C   UNL     1      25.393  22.433  -8.417  1.00  0.00     0.191 C 
BRANCH  27  28
ATOM     28  O   UNL     1      25.525  23.765  -8.920  1.00  0.00    -0.394 OA
ATOM     29  H   UNL     1      26.051  24.247  -8.249  1.00  0.00     0.210 HD
ENDBRANCH  27  28
ENDBRANCH  21  27
BRANCH  22  30
ATOM     30  O   UNL     1      24.395  22.044 -11.206  1.00  0.00    -0.387 OA
ATOM     31  H   UNL     1      24.907  22.002 -12.041  1.00  0.00     0.211 HD
ENDBRANCH  22  30
ENDBRANCH   1  17
TORSDOF 10
ENDMDL
MODEL 7
REMARK VINA RESULT:    -6.922      5.643      8.284
REMARK INTER + INTRA:         -10.372
REMARK INTER:                  -9.377
REMARK INTRA:                  -0.995
REMARK UNBOUND:                -0.416
REMARK SMILES O=C([O-])C1=CO[C@@H](O[C@@H]2O[C@H](CO)[C@@H](O)[C@H](O)[C@H]2O)[C@@H]2[C@@H](CO)CC[C@H]12
REMARK SMILES IDX 8 1 7 2 24 3 25 4 21 5 26 6 20 7 4 8 5 9 6 10 22 11 23 12
REMARK SMILES IDX 2 14 1 15 3 16 9 17 18 18 10 19 16 20 11 21 14 22 19 23
REMARK SMILES IDX 17 25 12 27 13 28 15 30
REMARK H PARENT 23 13 19 24 17 26 13 29 15 31
ROOT
ATOM      1  O   UNL     1      24.446  19.955 -10.020  1.00  0.00    -0.310 OA
ENDROOT
BRANCH   1   2
ATOM      2  C   UNL     1      23.698  20.448 -11.142  1.00  0.00     0.313 C 
ATOM      3  C   UNL     1      21.430  23.490 -10.996  1.00  0.00     0.007 C 
ATOM      4  C   UNL     1      22.711  24.011 -10.349  1.00  0.00     0.009 C 
ATOM      5  C   UNL     1      21.843  22.189 -11.677  1.00  0.00     0.024 C 
ATOM      6  C   UNL     1      23.664  22.804 -10.210  1.00  0.00     0.034 C 
ATOM      7  C   UNL     1      22.811  21.590 -10.642  1.00  0.00     0.071 C 
ATOM      8  C   UNL     1      24.898  22.936 -11.065  1.00  0.00     0.013 C 
ATOM      9  C   UNL     1      25.225  22.025 -11.990  1.00  0.00     0.196 C 
ATOM     10  O   UNL     1      24.552  20.853 -12.223  1.00  0.00    -0.472 OA
BRANCH   5  11
ATOM     11  C   UNL     1      20.647  21.307 -12.009  1.00  0.00     0.160 C 
BRANCH  11  12
ATOM     12  O   UNL     1      19.620  21.455 -11.037  1.00  0.00    -0.396 OA
ATOM     13  H   UNL     1      19.899  20.960 -10.245  1.00  0.00     0.210 HD
ENDBRANCH  11  12
ENDBRANCH   5  11
BRANCH   8  14
ATOM     14  C   UNL     1      25.816  24.159 -10.863  1.00  0.00     0.071 C 
ATOM     15  O   UNL     1      26.518  24.150  -9.813  1.00  0.00    -0.545 OA
ATOM     16  O   UNL     1      25.745  25.028 -11.778  1.00  0.00    -0.545 OA
ENDBRANCH   8  14
ENDBRANCH   1   2
BRANCH   1  17
ATOM     17  C   UNL     1      25.338  18.907 -10.380  1.00  0.00     0.286 C 
ATOM     18  C   UNL     1      26.524  19.001  -9.402  1.00  0.00     0.202 C 
ATOM     19  O   UNL     1      24.676  17.645 -10.251  1.00  0.00    -0.341 OA
ATOM     20  C   UNL     1      27.478  17.837  -9.641  1.00  0.00     0.179 C 
ATOM     21  C   UNL     1      25.546  16.538 -10.549  1.00  0.00     0.178 C 
ATOM     22  C   UNL     1      26.732  16.504  -9.578  1.00  0.00     0.177 C 
BRANCH  18  23
ATOM     23  O   UNL     1      27.263  20.221  -9.560  1.00  0.00    -0.385 OA
ATOM     24  H   UNL     1      27.411  20.572  -8.654  1.00  0.00     0.211 HD
ENDBRANCH  18  23
BRANCH  20  25
ATOM     25  O   UNL     1      28.526  17.835  -8.656  1.00  0.00    -0.387 OA
ATOM     26  H   UNL     1      29.342  17.663  -9.173  1.00  0.00     0.211 HD
ENDBRANCH  20  25
BRANCH  21  27
ATOM     27  C   UNL     1      24.708  15.259 -10.447  1.00  0.00     0.191 C 
BRANCH  27  28
ATOM     28  O   UNL     1      24.767  14.746  -9.113  1.00  0.00    -0.394 OA
ATOM     29  H   UNL     1      24.235  15.363  -8.572  1.00  0.00     0.210 HD
ENDBRANCH  27  28
ENDBRANCH  21  27
BRANCH  22  30
ATOM     30  O   UNL     1      27.638  15.444  -9.893  1.00  0.00    -0.387 OA
ATOM     31  H   UNL     1      28.497  15.729  -9.516  1.00  0.00     0.211 HD
ENDBRANCH  22  30
ENDBRANCH   1  17
TORSDOF 10
ENDMDL
MODEL 8
REMARK VINA RESULT:    -6.907      1.999      2.805
REMARK INTER + INTRA:         -10.351
REMARK INTER:                  -9.388
REMARK INTRA:                  -0.963
REMARK UNBOUND:                -0.416
REMARK SMILES O=C([O-])C1=CO[C@@H](O[C@@H]2O[C@H](CO)[C@@H](O)[C@H](O)[C@H]2O)[C@@H]2[C@@H](CO)CC[C@H]12
REMARK SMILES IDX 8 1 7 2 24 3 25 4 21 5 26 6 20 7 4 8 5 9 6 10 22 11 23 12
REMARK SMILES IDX 2 14 1 15 3 16 9 17 18 18 10 19 16 20 11 21 14 22 19 23
REMARK SMILES IDX 17 25 12 27 13 28 15 30
REMARK H PARENT 23 13 19 24 17 26 13 29 15 31
ROOT
ATOM      1  O   UNL     1      26.396  15.010  -8.914  1.00  0.00    -0.310 OA
ENDROOT
BRANCH   1   2
ATOM      2  C   UNL     1      26.892  16.355  -8.840  1.00  0.00     0.313 C 
ATOM      3  C   UNL     1      26.142  18.727  -5.971  1.00  0.00     0.007 C 
ATOM      4  C   UNL     1      26.582  17.462  -5.238  1.00  0.00     0.009 C 
ATOM      5  C   UNL     1      26.579  18.507  -7.416  1.00  0.00     0.024 C 
ATOM      6  C   UNL     1      26.767  16.366  -6.309  1.00  0.00     0.034 C 
ATOM      7  C   UNL     1      26.257  17.016  -7.615  1.00  0.00     0.071 C 
ATOM      8  C   UNL     1      28.200  15.920  -6.444  1.00  0.00     0.013 C 
ATOM      9  C   UNL     1      28.863  15.995  -7.605  1.00  0.00     0.196 C 
ATOM     10  O   UNL     1      28.327  16.398  -8.801  1.00  0.00    -0.472 OA
BRANCH   5  11
ATOM     11  C   UNL     1      25.865  19.443  -8.383  1.00  0.00     0.160 C 
BRANCH  11  12
ATOM     12  O   UNL     1      26.789  20.311  -9.027  1.00  0.00    -0.396 OA
ATOM     13  H   UNL     1      26.403  20.554  -9.888  1.00  0.00     0.210 HD
ENDBRANCH  11  12
ENDBRANCH   5  11
BRANCH   8  14
ATOM     14  C   UNL     1      28.922  15.354  -5.205  1.00  0.00     0.071 C 
ATOM     15  O   UNL     1      28.192  14.743  -4.375  1.00  0.00    -0.545 OA
ATOM     16  O   UNL     1      30.166  15.578  -5.173  1.00  0.00    -0.545 OA
ENDBRANCH   8  14
ENDBRANCH   1   2
BRANCH   1  17
ATOM     17  C   UNL     1      26.658  14.403 -10.175  1.00  0.00     0.286 C 
ATOM     18  C   UNL     1      27.336  13.056  -9.867  1.00  0.00     0.202 C 
ATOM     19  O   UNL     1      25.427  14.201 -10.876  1.00  0.00    -0.341 OA
ATOM     20  C   UNL     1      27.547  12.281 -11.163  1.00  0.00     0.179 C 
ATOM     21  C   UNL     1      25.619  13.538 -12.139  1.00  0.00     0.178 C 
ATOM     22  C   UNL     1      26.233  12.148 -11.933  1.00  0.00     0.177 C 
BRANCH  18  23
ATOM     23  O   UNL     1      28.614  13.221  -9.236  1.00  0.00    -0.385 OA
ATOM     24  H   UNL     1      29.055  12.343  -9.272  1.00  0.00     0.211 HD
ENDBRANCH  18  23
BRANCH  20  25
ATOM     25  O   UNL     1      28.063  10.968 -10.886  1.00  0.00    -0.387 OA
ATOM     26  H   UNL     1      28.003  10.887  -9.909  1.00  0.00     0.211 HD
ENDBRANCH  20  25
BRANCH  21  27
ATOM     27  C   UNL     1      24.250  13.446 -12.820  1.00  0.00     0.191 C 
BRANCH  27  28
ATOM     28  O   UNL     1      24.420  13.302 -14.232  1.00  0.00    -0.394 OA
ATOM     29  H   UNL     1      24.969  12.501 -14.349  1.00  0.00     0.210 HD
ENDBRANCH  27  28
ENDBRANCH  21  27
BRANCH  22  30
ATOM     30  O   UNL     1      26.484  11.496 -13.181  1.00  0.00    -0.387 OA
ATOM     31  H   UNL     1      25.595  11.295 -13.541  1.00  0.00     0.211 HD
ENDBRANCH  22  30
ENDBRANCH   1  17
TORSDOF 10
ENDMDL
MODEL 9
REMARK VINA RESULT:    -6.679      7.718     11.173
REMARK INTER + INTRA:         -10.024
REMARK INTER:                  -9.011
REMARK INTRA:                  -1.012
REMARK UNBOUND:                -0.416
REMARK SMILES O=C([O-])C1=CO[C@@H](O[C@@H]2O[C@H](CO)[C@@H](O)[C@H](O)[C@H]2O)[C@@H]2[C@@H](CO)CC[C@H]12
REMARK SMILES IDX 8 1 7 2 24 3 25 4 21 5 26 6 20 7 4 8 5 9 6 10 22 11 23 12
REMARK SMILES IDX 2 14 1 15 3 16 9 17 18 18 10 19 16 20 11 21 14 22 19 23
REMARK SMILES IDX 17 25 12 27 13 28 15 30
REMARK H PARENT 23 13 19 24 17 26 13 29 15 31
ROOT
ATOM      1  O   UNL     1      24.964  23.801 -10.629  1.00  0.00    -0.310 OA
ENDROOT
BRANCH   1   2
ATOM      2  C   UNL     1      23.860  23.486 -11.491  1.00  0.00     0.313 C 
ATOM      3  C   UNL     1      20.218  23.786 -10.458  1.00  0.00     0.007 C 
ATOM      4  C   UNL     1      20.789  25.135 -10.025  1.00  0.00     0.009 C 
ATOM      5  C   UNL     1      21.279  23.197 -11.383  1.00  0.00     0.024 C 
ATOM      6  C   UNL     1      22.315  25.069 -10.255  1.00  0.00     0.034 C 
ATOM      7  C   UNL     1      22.578  23.602 -10.665  1.00  0.00     0.071 C 
ATOM      8  C   UNL     1      22.783  26.025 -11.322  1.00  0.00     0.013 C 
ATOM      9  C   UNL     1      23.442  25.611 -12.412  1.00  0.00     0.196 C 
ATOM     10  O   UNL     1      23.834  24.321 -12.659  1.00  0.00    -0.472 OA
BRANCH   5  11
ATOM     11  C   UNL     1      21.105  21.697 -11.578  1.00  0.00     0.160 C 
BRANCH  11  12
ATOM     12  O   UNL     1      19.941  21.228 -10.909  1.00  0.00    -0.396 OA
ATOM     13  H   UNL     1      20.239  20.734 -10.124  1.00  0.00     0.210 HD
ENDBRANCH  11  12
ENDBRANCH   5  11
BRANCH   8  14
ATOM     14  C   UNL     1      22.499  27.531 -11.147  1.00  0.00     0.071 C 
ATOM     15  O   UNL     1      23.213  28.129 -10.294  1.00  0.00    -0.545 OA
ATOM     16  O   UNL     1      21.574  27.981 -11.882  1.00  0.00    -0.545 OA
ENDBRANCH   8  14
ENDBRANCH   1   2
BRANCH   1  17
ATOM     17  C   UNL     1      25.763  22.662 -10.330  1.00  0.00     0.286 C 
ATOM     18  C   UNL     1      25.220  22.097  -9.005  1.00  0.00     0.202 C 
ATOM     19  O   UNL     1      25.638  21.698 -11.379  1.00  0.00    -0.341 OA
ATOM     20  C   UNL     1      25.945  20.800  -8.666  1.00  0.00     0.179 C 
ATOM     21  C   UNL     1      26.382  20.496 -11.108  1.00  0.00     0.178 C 
ATOM     22  C   UNL     1      25.867  19.816  -9.834  1.00  0.00     0.177 C 
BRANCH  18  23
ATOM     23  O   UNL     1      25.402  23.006  -7.909  1.00  0.00    -0.385 OA
ATOM     24  H   UNL     1      26.257  23.463  -8.069  1.00  0.00     0.211 HD
ENDBRANCH  18  23
BRANCH  20  25
ATOM     25  O   UNL     1      25.367  20.189  -7.499  1.00  0.00    -0.387 OA
ATOM     26  H   UNL     1      24.991  19.346  -7.831  1.00  0.00     0.211 HD
ENDBRANCH  20  25
BRANCH  21  27
ATOM     27  C   UNL     1      26.230  19.580 -12.327  1.00  0.00     0.191 C 
BRANCH  27  28
ATOM     28  O   UNL     1      25.238  18.584 -12.063  1.00  0.00    -0.394 OA
ATOM     29  H   UNL     1      25.595  17.754 -12.437  1.00  0.00     0.210 HD
ENDBRANCH  27  28
ENDBRANCH  21  27
BRANCH  22  30
ATOM     30  O   UNL     1      26.631  18.649  -9.516  1.00  0.00    -0.387 OA
ATOM     31  H   UNL     1      27.252  18.545 -10.268  1.00  0.00     0.211 HD
ENDBRANCH  22  30
ENDBRANCH   1  17
TORSDOF 10
ENDMDL
