MODEL 1
REMARK VINA RESULT:    -7.757      0.000      0.000
REMARK INTER + INTRA:         -11.511
REMARK INTER:                 -11.158
REMARK INTRA:                  -0.353
REMARK UNBOUND:                -0.353
REMARK SMILES O=C([O-])C1=CO[C@@H](O[C@@H]2O[C@H](CO)[C@@H](O)[C@H](O)[C@H]2O)[C@@H]2[C@@H](CO)CC[C@H]12
REMARK SMILES IDX 8 1 7 2 24 3 25 4 21 5 26 6 20 7 4 8 5 9 6 10 22 11 23 12
REMARK SMILES IDX 2 14 1 15 3 16 9 17 18 18 10 19 16 20 11 21 14 22 19 23
REMARK SMILES IDX 17 25 12 27 13 28 15 30
REMARK H PARENT 23 13 19 24 17 26 13 29 15 31
ROOT
ATOM      1  O   UNL     1      28.333  13.843  -8.505  1.00  0.00    -0.310 OA
ENDROOT
BRANCH   1   2
ATOM      2  C   UNL     1      28.049  15.246  -8.407  1.00  0.00     0.313 C 
ATOM      3  C   UNL     1      26.131  16.818  -5.532  1.00  0.00     0.007 C 
ATOM      4  C   UNL     1      27.160  15.958  -4.802  1.00  0.00     0.009 C 
ATOM      5  C   UNL     1      26.636  16.888  -6.969  1.00  0.00     0.024 C 
ATOM      6  C   UNL     1      27.905  15.141  -5.879  1.00  0.00     0.034 C 
ATOM      7  C   UNL     1      27.147  15.453  -7.189  1.00  0.00     0.071 C 
ATOM      8  C   UNL     1      29.360  15.515  -5.989  1.00  0.00     0.013 C 
ATOM      9  C   UNL     1      29.901  15.949  -7.135  1.00  0.00     0.196 C 
ATOM     10  O   UNL     1      29.248  16.034  -8.338  1.00  0.00    -0.472 OA
BRANCH   5  11
ATOM     11  C   UNL     1      25.551  17.329  -7.941  1.00  0.00     0.160 C 
BRANCH  11  12
ATOM     12  O   UNL     1      24.364  16.567  -7.760  1.00  0.00    -0.396 OA
ATOM     13  H   UNL     1      23.881  16.960  -7.010  1.00  0.00     0.210 HD
ENDBRANCH  11  12
ENDBRANCH   5  11
BRANCH   8  14
ATOM     14  C   UNL     1      30.257  15.387  -4.741  1.00  0.00     0.071 C 
ATOM     15  O   UNL     1      29.661  15.112  -3.662  1.00  0.00    -0.545 OA
ATOM     16  O   UNL     1      31.488  15.581  -4.955  1.00  0.00    -0.545 OA
ENDBRANCH   8  14
ENDBRANCH   1   2
BRANCH   1  17
ATOM     17  C   UNL     1      27.277  13.116  -9.121  1.00  0.00     0.286 C 
ATOM     18  C   UNL     1      27.703  12.903 -10.585  1.00  0.00     0.202 C 
ATOM     19  O   UNL     1      27.105  11.860  -8.457  1.00  0.00    -0.341 OA
ATOM     20  C   UNL     1      26.677  12.026 -11.294  1.00  0.00     0.179 C 
ATOM     21  C   UNL     1      26.084  11.052  -9.070  1.00  0.00     0.178 C 
ATOM     22  C   UNL     1      26.451  10.726 -10.522  1.00  0.00     0.177 C 
BRANCH  18  23
ATOM     23  O   UNL     1      27.806  14.138 -11.308  1.00  0.00    -0.385 OA
ATOM     24  H   UNL     1      26.888  14.396 -11.546  1.00  0.00     0.211 HD
ENDBRANCH  18  23
BRANCH  20  25
ATOM     25  O   UNL     1      27.119  11.711 -12.626  1.00  0.00    -0.387 OA
ATOM     26  H   UNL     1      27.771  12.414 -12.836  1.00  0.00     0.211 HD
ENDBRANCH  20  25
BRANCH  21  27
ATOM     27  C   UNL     1      25.946   9.777  -8.231  1.00  0.00     0.191 C 
BRANCH  27  28
ATOM     28  O   UNL     1      24.717   9.119  -8.550  1.00  0.00    -0.394 OA
ATOM     29  H   UNL     1      24.151   9.805  -8.958  1.00  0.00     0.210 HD
ENDBRANCH  27  28
ENDBRANCH  21  27
BRANCH  22  30
ATOM     30  O   UNL     1      25.422   9.971 -11.167  1.00  0.00    -0.387 OA
ATOM     31  H   UNL     1      24.600  10.211 -10.690  1.00  0.00     0.211 HD
ENDBRANCH  22  30
ENDBRANCH   1  17
TORSDOF 10
ENDMDL
MODEL 2
REMARK VINA RESULT:    -7.705      1.176      2.135
REMARK INTER + INTRA:         -11.437
REMARK INTER:                 -11.021
REMARK INTRA:                  -0.416
REMARK UNBOUND:                -0.353
REMARK SMILES O=C([O-])C1=CO[C@@H](O[C@@H]2O[C@H](CO)[C@@H](O)[C@H](O)[C@H]2O)[C@@H]2[C@@H](CO)CC[C@H]12
REMARK SMILES IDX 8 1 7 2 24 3 25 4 21 5 26 6 20 7 4 8 5 9 6 10 22 11 23 12
REMARK SMILES IDX 2 14 1 15 3 16 9 17 18 18 10 19 16 20 11 21 14 22 19 23
REMARK SMILES IDX 17 25 12 27 13 28 15 30
REMARK H PARENT 23 13 19 24 17 26 13 29 15 31
ROOT
ATOM      1  O   UNL     1      28.573  13.672  -8.346  1.00  0.00    -0.310 OA
ENDROOT
BRANCH   1   2
ATOM      2  C   UNL     1      28.239  15.068  -8.314  1.00  0.00     0.313 C 
ATOM      3  C   UNL     1      26.216  16.694  -5.543  1.00  0.00     0.007 C 
ATOM      4  C   UNL     1      27.262  15.904  -4.759  1.00  0.00     0.009 C 
ATOM      5  C   UNL     1      26.744  16.719  -6.973  1.00  0.00     0.024 C 
ATOM      6  C   UNL     1      28.054  15.068  -5.787  1.00  0.00     0.034 C 
ATOM      7  C   UNL     1      27.308  15.295  -7.121  1.00  0.00     0.071 C 
ATOM      8  C   UNL     1      29.497  15.489  -5.890  1.00  0.00     0.013 C 
ATOM      9  C   UNL     1      30.042  15.891  -7.045  1.00  0.00     0.196 C 
ATOM     10  O   UNL     1      29.407  15.900  -8.261  1.00  0.00    -0.472 OA
BRANCH   5  11
ATOM     11  C   UNL     1      25.661  17.078  -7.981  1.00  0.00     0.160 C 
BRANCH  11  12
ATOM     12  O   UNL     1      24.479  16.322  -7.750  1.00  0.00    -0.396 OA
ATOM     13  H   UNL     1      24.637  15.427  -8.100  1.00  0.00     0.210 HD
ENDBRANCH  11  12
ENDBRANCH   5  11
BRANCH   8  14
ATOM     14  C   UNL     1      30.376  15.448  -4.623  1.00  0.00     0.071 C 
ATOM     15  O   UNL     1      29.758  15.317  -3.530  1.00  0.00    -0.545 OA
ATOM     16  O   UNL     1      31.617  15.556  -4.840  1.00  0.00    -0.545 OA
ENDBRANCH   8  14
ENDBRANCH   1   2
BRANCH   1  17
ATOM     17  C   UNL     1      28.145  13.036  -9.544  1.00  0.00     0.286 C 
ATOM     18  C   UNL     1      27.893  11.562  -9.179  1.00  0.00     0.202 C 
ATOM     19  O   UNL     1      26.942  13.653 -10.012  1.00  0.00    -0.341 OA
ATOM     20  C   UNL     1      27.316  10.827 -10.383  1.00  0.00     0.179 C 
ATOM     21  C   UNL     1      26.426  13.017 -11.196  1.00  0.00     0.178 C 
ATOM     22  C   UNL     1      26.078  11.551 -10.915  1.00  0.00     0.177 C 
BRANCH  18  23
ATOM     23  O   UNL     1      29.096  10.887  -8.782  1.00  0.00    -0.385 OA
ATOM     24  H   UNL     1      29.841  11.463  -9.061  1.00  0.00     0.211 HD
ENDBRANCH  18  23
BRANCH  20  25
ATOM     25  O   UNL     1      26.956   9.482 -10.027  1.00  0.00    -0.387 OA
ATOM     26  H   UNL     1      27.415   9.328  -9.173  1.00  0.00     0.211 HD
ENDBRANCH  20  25
BRANCH  21  27
ATOM     27  C   UNL     1      25.189  13.807 -11.637  1.00  0.00     0.191 C 
BRANCH  27  28
ATOM     28  O   UNL     1      24.752  14.655 -10.572  1.00  0.00    -0.394 OA
ATOM     29  H   UNL     1      24.703  14.080  -9.782  1.00  0.00     0.210 HD
ENDBRANCH  27  28
ENDBRANCH  21  27
BRANCH  22  30
ATOM     30  O   UNL     1      25.616  10.886 -12.094  1.00  0.00    -0.387 OA
ATOM     31  H   UNL     1      26.189  11.225 -12.813  1.00  0.00     0.211 HD
ENDBRANCH  22  30
ENDBRANCH   1  17
TORSDOF 10
ENDMDL
MODEL 3
REMARK VINA RESULT:    -7.547      3.690      6.669
REMARK INTER + INTRA:         -11.209
REMARK INTER:                 -10.463
REMARK INTRA:                  -0.745
REMARK UNBOUND:                -0.353
REMARK SMILES O=C([O-])C1=CO[C@@H](O[C@@H]2O[C@H](CO)[C@@H](O)[C@H](O)[C@H]2O)[C@@H]2[C@@H](CO)CC[C@H]12
REMARK SMILES IDX 8 1 7 2 24 3 25 4 21 5 26 6 20 7 4 8 5 9 6 10 22 11 23 12
REMARK SMILES IDX 2 14 1 15 3 16 9 17 18 18 10 19 16 20 11 21 14 22 19 23
REMARK SMILES IDX 17 25 12 27 13 28 15 30
REMARK H PARENT 23 13 19 24 17 26 13 29 15 31
ROOT
ATOM      1  O   UNL     1      25.936  18.576  -8.166  1.00  0.00    -0.310 OA
ENDROOT
BRANCH   1   2
ATOM      2  C   UNL     1      26.115  18.679  -9.587  1.00  0.00     0.313 C 
ATOM      3  C   UNL     1      23.403  19.837 -11.979  1.00  0.00     0.007 C 
ATOM      4  C   UNL     1      23.365  20.917 -10.900  1.00  0.00     0.009 C 
ATOM      5  C   UNL     1      24.713  19.095 -11.736  1.00  0.00     0.024 C 
ATOM      6  C   UNL     1      24.328  20.466  -9.781  1.00  0.00     0.034 C 
ATOM      7  C   UNL     1      24.760  19.042 -10.199  1.00  0.00     0.071 C 
ATOM      8  C   UNL     1      25.520  21.377  -9.637  1.00  0.00     0.013 C 
ATOM      9  C   UNL     1      26.777  20.931  -9.753  1.00  0.00     0.196 C 
ATOM     10  O   UNL     1      27.141  19.621  -9.933  1.00  0.00    -0.472 OA
BRANCH   5  11
ATOM     11  C   UNL     1      24.739  17.734 -12.417  1.00  0.00     0.160 C 
BRANCH  11  12
ATOM     12  O   UNL     1      24.138  16.741 -11.596  1.00  0.00    -0.396 OA
ATOM     13  H   UNL     1      23.650  17.206 -10.892  1.00  0.00     0.210 HD
ENDBRANCH  11  12
ENDBRANCH   5  11
BRANCH   8  14
ATOM     14  C   UNL     1      25.281  22.871  -9.340  1.00  0.00     0.071 C 
ATOM     15  O   UNL     1      25.193  23.625 -10.349  1.00  0.00    -0.545 OA
ATOM     16  O   UNL     1      25.208  23.159  -8.111  1.00  0.00    -0.545 OA
ENDBRANCH   8  14
ENDBRANCH   1   2
BRANCH   1  17
ATOM     17  C   UNL     1      26.380  17.327  -7.651  1.00  0.00     0.286 C 
ATOM     18  C   UNL     1      25.683  16.245  -8.495  1.00  0.00     0.202 C 
ATOM     19  O   UNL     1      27.802  17.230  -7.781  1.00  0.00    -0.341 OA
ATOM     20  C   UNL     1      26.193  14.868  -8.086  1.00  0.00     0.179 C 
ATOM     21  C   UNL     1      28.308  15.962  -7.326  1.00  0.00     0.178 C 
ATOM     22  C   UNL     1      27.720  14.815  -8.156  1.00  0.00     0.177 C 
BRANCH  18  23
ATOM     23  O   UNL     1      24.257  16.257  -8.326  1.00  0.00    -0.385 OA
ATOM     24  H   UNL     1      23.888  16.679  -9.133  1.00  0.00     0.211 HD
ENDBRANCH  18  23
BRANCH  20  25
ATOM     25  O   UNL     1      25.649  13.853  -8.947  1.00  0.00    -0.387 OA
ATOM     26  H   UNL     1      26.121  13.981  -9.798  1.00  0.00     0.211 HD
ENDBRANCH  20  25
BRANCH  21  27
ATOM     27  C   UNL     1      29.835  16.010  -7.448  1.00  0.00     0.191 C 
BRANCH  27  28
ATOM     28  O   UNL     1      30.432  15.488  -6.258  1.00  0.00    -0.394 OA
ATOM     29  H   UNL     1      29.775  15.638  -5.548  1.00  0.00     0.210 HD
ENDBRANCH  27  28
ENDBRANCH  21  27
BRANCH  22  30
ATOM     30  O   UNL     1      28.167  13.542  -7.683  1.00  0.00    -0.387 OA
ATOM     31  H   UNL     1      27.941  13.536  -6.729  1.00  0.00     0.211 HD
ENDBRANCH  22  30
ENDBRANCH   1  17
TORSDOF 10
ENDMDL
MODEL 4
REMARK VINA RESULT:    -7.543      3.985      7.505
REMARK INTER + INTRA:         -11.204
REMARK INTER:                 -10.045
REMARK INTRA:                  -1.159
REMARK UNBOUND:                -0.353
REMARK SMILES O=C([O-])C1=CO[C@@H](O[C@@H]2O[C@H](CO)[C@@H](O)[C@H](O)[C@H]2O)[C@@H]2[C@@H](CO)CC[C@H]12
REMARK SMILES IDX 8 1 7 2 24 3 25 4 21 5 26 6 20 7 4 8 5 9 6 10 22 11 23 12
REMARK SMILES IDX 2 14 1 15 3 16 9 17 18 18 10 19 16 20 11 21 14 22 19 23
REMARK SMILES IDX 17 25 12 27 13 28 15 30
REMARK H PARENT 23 13 19 24 17 26 13 29 15 31
ROOT
ATOM      1  O   UNL     1      26.233  18.568 -10.326  1.00  0.00    -0.310 OA
ENDROOT
BRANCH   1   2
ATOM      2  C   UNL     1      26.842  18.756  -9.040  1.00  0.00     0.313 C 
ATOM      3  C   UNL     1      25.586  17.128  -5.848  1.00  0.00     0.007 C 
ATOM      4  C   UNL     1      25.645  15.945  -6.813  1.00  0.00     0.009 C 
ATOM      5  C   UNL     1      26.391  18.226  -6.535  1.00  0.00     0.024 C 
ATOM      6  C   UNL     1      25.997  16.519  -8.202  1.00  0.00     0.034 C 
ATOM      7  C   UNL     1      25.965  18.051  -8.003  1.00  0.00     0.071 C 
ATOM      8  C   UNL     1      27.345  16.061  -8.695  1.00  0.00     0.013 C 
ATOM      9  C   UNL     1      28.319  16.923  -9.015  1.00  0.00     0.196 C 
ATOM     10  O   UNL     1      28.200  18.290  -9.014  1.00  0.00    -0.472 OA
BRANCH   5  11
ATOM     11  C   UNL     1      26.101  19.603  -5.952  1.00  0.00     0.160 C 
BRANCH  11  12
ATOM     12  O   UNL     1      25.522  20.458  -6.929  1.00  0.00    -0.396 OA
ATOM     13  H   UNL     1      24.562  20.477  -6.763  1.00  0.00     0.210 HD
ENDBRANCH  11  12
ENDBRANCH   5  11
BRANCH   8  14
ATOM     14  C   UNL     1      27.609  14.548  -8.840  1.00  0.00     0.071 C 
ATOM     15  O   UNL     1      26.737  13.898  -9.481  1.00  0.00    -0.545 OA
ATOM     16  O   UNL     1      28.673  14.144  -8.291  1.00  0.00    -0.545 OA
ENDBRANCH   8  14
ENDBRANCH   1   2
BRANCH   1  17
ATOM     17  C   UNL     1      25.745  19.784 -10.880  1.00  0.00     0.286 C 
ATOM     18  C   UNL     1      24.217  19.623 -10.982  1.00  0.00     0.202 C 
ATOM     19  O   UNL     1      26.082  20.875 -10.018  1.00  0.00    -0.341 OA
ATOM     20  C   UNL     1      23.595  20.930 -11.459  1.00  0.00     0.179 C 
ATOM     21  C   UNL     1      25.566  22.130 -10.497  1.00  0.00     0.178 C 
ATOM     22  C   UNL     1      24.035  22.094 -10.570  1.00  0.00     0.177 C 
BRANCH  18  23
ATOM     23  O   UNL     1      23.838  18.589 -11.902  1.00  0.00    -0.385 OA
ATOM     24  H   UNL     1      23.860  18.996 -12.797  1.00  0.00     0.211 HD
ENDBRANCH  18  23
BRANCH  20  25
ATOM     25  O   UNL     1      22.160  20.841 -11.440  1.00  0.00    -0.387 OA
ATOM     26  H   UNL     1      21.980  19.907 -11.201  1.00  0.00     0.211 HD
ENDBRANCH  20  25
BRANCH  21  27
ATOM     27  C   UNL     1      26.051  23.221  -9.536  1.00  0.00     0.191 C 
BRANCH  27  28
ATOM     28  O   UNL     1      25.224  23.240  -8.370  1.00  0.00    -0.394 OA
ATOM     29  H   UNL     1      25.838  23.338  -7.615  1.00  0.00     0.210 HD
ENDBRANCH  27  28
ENDBRANCH  21  27
BRANCH  22  30
ATOM     30  O   UNL     1      23.506  23.313 -11.098  1.00  0.00    -0.387 OA
ATOM     31  H   UNL     1      23.365  23.885 -10.314  1.00  0.00     0.211 HD
ENDBRANCH  22  30
ENDBRANCH   1  17
TORSDOF 10
ENDMDL
MODEL 5
REMARK VINA RESULT:    -7.195      3.962      7.626
REMARK INTER + INTRA:         -10.703
REMARK INTER:                  -9.731
REMARK INTRA:                  -0.972
REMARK UNBOUND:                -0.353
REMARK SMILES O=C([O-])C1=CO[C@@H](O[C@@H]2O[C@H](CO)[C@@H](O)[C@H](O)[C@H]2O)[C@@H]2[C@@H](CO)CC[C@H]12
REMARK SMILES IDX 8 1 7 2 24 3 25 4 21 5 26 6 20 7 4 8 5 9 6 10 22 11 23 12
REMARK SMILES IDX 2 14 1 15 3 16 9 17 18 18 10 19 16 20 11 21 14 22 19 23
REMARK SMILES IDX 17 25 12 27 13 28 15 30
REMARK H PARENT 23 13 19 24 17 26 13 29 15 31
ROOT
ATOM      1  O   UNL     1      26.929  18.600  -8.953  1.00  0.00    -0.310 OA
ENDROOT
BRANCH   1   2
ATOM      2  C   UNL     1      26.056  17.470  -8.799  1.00  0.00     0.313 C 
ATOM      3  C   UNL     1      27.082  13.891  -9.545  1.00  0.00     0.007 C 
ATOM      4  C   UNL     1      28.236  14.383  -8.674  1.00  0.00     0.009 C 
ATOM      5  C   UNL     1      25.983  14.931  -9.353  1.00  0.00     0.024 C 
ATOM      6  C   UNL     1      28.004  15.891  -8.435  1.00  0.00     0.034 C 
ATOM      7  C   UNL     1      26.793  16.239  -9.330  1.00  0.00     0.071 C 
ATOM      8  C   UNL     1      27.725  16.214  -6.990  1.00  0.00     0.013 C 
ATOM      9  C   UNL     1      26.602  16.831  -6.600  1.00  0.00     0.196 C 
ATOM     10  O   UNL     1      25.626  17.305  -7.439  1.00  0.00    -0.472 OA
BRANCH   5  11
ATOM     11  C   UNL     1      24.926  14.862 -10.446  1.00  0.00     0.160 C 
BRANCH  11  12
ATOM     12  O   UNL     1      25.079  13.684 -11.229  1.00  0.00    -0.396 OA
ATOM     13  H   UNL     1      24.865  12.927 -10.654  1.00  0.00     0.210 HD
ENDBRANCH  11  12
ENDBRANCH   5  11
BRANCH   8  14
ATOM     14  C   UNL     1      28.772  15.827  -5.926  1.00  0.00     0.071 C 
ATOM     15  O   UNL     1      28.311  15.482  -4.802  1.00  0.00    -0.545 OA
ATOM     16  O   UNL     1      29.972  15.909  -6.314  1.00  0.00    -0.545 OA
ENDBRANCH   8  14
ENDBRANCH   1   2
BRANCH   1  17
ATOM     17  C   UNL     1      26.265  19.727  -9.513  1.00  0.00     0.286 C 
ATOM     18  C   UNL     1      26.075  20.727  -8.358  1.00  0.00     0.202 C 
ATOM     19  O   UNL     1      27.073  20.297 -10.547  1.00  0.00    -0.341 OA
ATOM     20  C   UNL     1      25.473  22.021  -8.894  1.00  0.00     0.179 C 
ATOM     21  C   UNL     1      26.479  21.478 -11.117  1.00  0.00     0.178 C 
ATOM     22  C   UNL     1      26.310  22.567 -10.051  1.00  0.00     0.177 C 
BRANCH  18  23
ATOM     23  O   UNL     1      25.202  20.222  -7.337  1.00  0.00    -0.385 OA
ATOM     24  H   UNL     1      25.445  20.691  -6.509  1.00  0.00     0.211 HD
ENDBRANCH  18  23
BRANCH  20  25
ATOM     25  O   UNL     1      25.405  23.013  -7.855  1.00  0.00    -0.387 OA
ATOM     26  H   UNL     1      26.260  22.924  -7.381  1.00  0.00     0.211 HD
ENDBRANCH  20  25
BRANCH  21  27
ATOM     27  C   UNL     1      27.396  21.948 -12.251  1.00  0.00     0.191 C 
BRANCH  27  28
ATOM     28  O   UNL     1      28.215  23.027 -11.796  1.00  0.00    -0.394 OA
ATOM     29  H   UNL     1      29.108  22.645 -11.674  1.00  0.00     0.210 HD
ENDBRANCH  27  28
ENDBRANCH  21  27
BRANCH  22  30
ATOM     30  O   UNL     1      25.669  23.729 -10.586  1.00  0.00    -0.387 OA
ATOM     31  H   UNL     1      26.266  24.037 -11.299  1.00  0.00     0.211 HD
ENDBRANCH  22  30
ENDBRANCH   1  17
TORSDOF 10
ENDMDL
MODEL 6
REMARK VINA RESULT:    -7.009      1.973      2.722
REMARK INTER + INTRA:         -10.435
REMARK INTER:                  -9.611
REMARK INTRA:                  -0.824
REMARK UNBOUND:                -0.353
REMARK SMILES O=C([O-])C1=CO[C@@H](O[C@@H]2O[C@H](CO)[C@@H](O)[C@H](O)[C@H]2O)[C@@H]2[C@@H](CO)CC[C@H]12
REMARK SMILES IDX 8 1 7 2 24 3 25 4 21 5 26 6 20 7 4 8 5 9 6 10 22 11 23 12
REMARK SMILES IDX 2 14 1 15 3 16 9 17 18 18 10 19 16 20 11 21 14 22 19 23
REMARK SMILES IDX 17 25 12 27 13 28 15 30
REMARK H PARENT 23 13 19 24 17 26 13 29 15 31
ROOT
ATOM      1  O   UNL     1      26.592  14.921  -8.955  1.00  0.00    -0.310 OA
ENDROOT
BRANCH   1   2
ATOM      2  C   UNL     1      27.047  16.278  -8.838  1.00  0.00     0.313 C 
ATOM      3  C   UNL     1      26.109  18.580  -5.967  1.00  0.00     0.007 C 
ATOM      4  C   UNL     1      26.551  17.315  -5.235  1.00  0.00     0.009 C 
ATOM      5  C   UNL     1      26.614  18.396  -7.394  1.00  0.00     0.024 C 
ATOM      6  C   UNL     1      26.812  16.242  -6.314  1.00  0.00     0.034 C 
ATOM      7  C   UNL     1      26.342  16.901  -7.631  1.00  0.00     0.071 C 
ATOM      8  C   UNL     1      28.261  15.837  -6.394  1.00  0.00     0.013 C 
ATOM      9  C   UNL     1      28.972  15.949  -7.523  1.00  0.00     0.196 C 
ATOM     10  O   UNL     1      28.477  16.358  -8.735  1.00  0.00    -0.472 OA
BRANCH   5  11
ATOM     11  C   UNL     1      25.918  19.329  -8.376  1.00  0.00     0.160 C 
BRANCH  11  12
ATOM     12  O   UNL     1      26.856  20.179  -9.024  1.00  0.00    -0.396 OA
ATOM     13  H   UNL     1      26.646  20.168  -9.976  1.00  0.00     0.210 HD
ENDBRANCH  11  12
ENDBRANCH   5  11
BRANCH   8  14
ATOM     14  C   UNL     1      28.944  15.268  -5.134  1.00  0.00     0.071 C 
ATOM     15  O   UNL     1      28.196  14.620  -4.349  1.00  0.00    -0.545 OA
ATOM     16  O   UNL     1      30.177  15.528  -5.041  1.00  0.00    -0.545 OA
ENDBRANCH   8  14
ENDBRANCH   1   2
BRANCH   1  17
ATOM     17  C   UNL     1      26.822  14.381 -10.251  1.00  0.00     0.286 C 
ATOM     18  C   UNL     1      27.513  13.023 -10.030  1.00  0.00     0.202 C 
ATOM     19  O   UNL     1      25.575  14.208 -10.930  1.00  0.00    -0.341 OA
ATOM     20  C   UNL     1      27.694  12.316 -11.368  1.00  0.00     0.179 C 
ATOM     21  C   UNL     1      25.737  13.611 -12.229  1.00  0.00     0.178 C 
ATOM     22  C   UNL     1      26.361  12.216 -12.110  1.00  0.00     0.177 C 
BRANCH  18  23
ATOM     23  O   UNL     1      28.807  13.162  -9.424  1.00  0.00    -0.385 OA
ATOM     24  H   UNL     1      28.732  12.778  -8.522  1.00  0.00     0.211 HD
ENDBRANCH  18  23
BRANCH  20  25
ATOM     25  O   UNL     1      28.222  10.993 -11.171  1.00  0.00    -0.387 OA
ATOM     26  H   UNL     1      28.760  10.827 -11.975  1.00  0.00     0.211 HD
ENDBRANCH  20  25
BRANCH  21  27
ATOM     27  C   UNL     1      24.351  13.547 -12.879  1.00  0.00     0.191 C 
BRANCH  27  28
ATOM     28  O   UNL     1      23.406  14.258 -12.075  1.00  0.00    -0.394 OA
ATOM     29  H   UNL     1      23.915  14.978 -11.649  1.00  0.00     0.210 HD
ENDBRANCH  27  28
ENDBRANCH  21  27
BRANCH  22  30
ATOM     30  O   UNL     1      26.582  11.629 -13.395  1.00  0.00    -0.387 OA
ATOM     31  H   UNL     1      25.706  11.286 -13.668  1.00  0.00     0.211 HD
ENDBRANCH  22  30
ENDBRANCH   1  17
TORSDOF 10
ENDMDL
MODEL 7
REMARK VINA RESULT:    -6.976      3.515      6.773
REMARK INTER + INTRA:         -10.388
REMARK INTER:                  -9.768
REMARK INTRA:                  -0.620
REMARK UNBOUND:                -0.353
REMARK SMILES O=C([O-])C1=CO[C@@H](O[C@@H]2O[C@H](CO)[C@@H](O)[C@H](O)[C@H]2O)[C@@H]2[C@@H](CO)CC[C@H]12
REMARK SMILES IDX 8 1 7 2 24 3 25 4 21 5 26 6 20 7 4 8 5 9 6 10 22 11 23 12
REMARK SMILES IDX 2 14 1 15 3 16 9 17 18 18 10 19 16 20 11 21 14 22 19 23
REMARK SMILES IDX 17 25 12 27 13 28 15 30
REMARK H PARENT 23 13 19 24 17 26 13 29 15 31
ROOT
ATOM      1  O   UNL     1      27.584  18.304  -8.844  1.00  0.00    -0.310 OA
ENDROOT
BRANCH   1   2
ATOM      2  C   UNL     1      26.505  17.414  -8.524  1.00  0.00     0.313 C 
ATOM      3  C   UNL     1      26.698  13.639  -8.891  1.00  0.00     0.007 C 
ATOM      4  C   UNL     1      27.984  13.956  -8.131  1.00  0.00     0.009 C 
ATOM      5  C   UNL     1      25.859  14.908  -8.776  1.00  0.00     0.024 C 
ATOM      6  C   UNL     1      28.094  15.495  -8.059  1.00  0.00     0.034 C 
ATOM      7  C   UNL     1      26.928  16.003  -8.938  1.00  0.00     0.071 C 
ATOM      8  C   UNL     1      27.984  16.020  -6.652  1.00  0.00     0.013 C 
ATOM      9  C   UNL     1      27.045  16.904  -6.290  1.00  0.00     0.196 C 
ATOM     10  O   UNL     1      26.139  17.489  -7.137  1.00  0.00    -0.472 OA
BRANCH   5  11
ATOM     11  C   UNL     1      24.742  14.956  -9.809  1.00  0.00     0.160 C 
BRANCH  11  12
ATOM     12  O   UNL     1      25.041  14.123 -10.922  1.00  0.00    -0.396 OA
ATOM     13  H   UNL     1      26.005  14.157 -11.056  1.00  0.00     0.210 HD
ENDBRANCH  11  12
ENDBRANCH   5  11
BRANCH   8  14
ATOM     14  C   UNL     1      28.993  15.527  -5.594  1.00  0.00     0.071 C 
ATOM     15  O   UNL     1      28.498  15.161  -4.491  1.00  0.00    -0.545 OA
ATOM     16  O   UNL     1      30.201  15.557  -5.965  1.00  0.00    -0.545 OA
ENDBRANCH   8  14
ENDBRANCH   1   2
BRANCH   1  17
ATOM     17  C   UNL     1      27.159  19.419  -9.618  1.00  0.00     0.286 C 
ATOM     18  C   UNL     1      26.128  18.872 -10.623  1.00  0.00     0.202 C 
ATOM     19  O   UNL     1      26.560  20.398  -8.764  1.00  0.00    -0.341 OA
ATOM     20  C   UNL     1      25.529  20.025 -11.421  1.00  0.00     0.179 C 
ATOM     21  C   UNL     1      26.058  21.530  -9.496  1.00  0.00     0.178 C 
ATOM     22  C   UNL     1      24.969  21.096 -10.484  1.00  0.00     0.177 C 
BRANCH  18  23
ATOM     23  O   UNL     1      26.711  17.946 -11.552  1.00  0.00    -0.385 OA
ATOM     24  H   UNL     1      26.145  17.143 -11.533  1.00  0.00     0.211 HD
ENDBRANCH  18  23
BRANCH  20  25
ATOM     25  O   UNL     1      24.474  19.551 -12.275  1.00  0.00    -0.387 OA
ATOM     26  H   UNL     1      23.751  20.202 -12.149  1.00  0.00     0.211 HD
ENDBRANCH  20  25
BRANCH  21  27
ATOM     27  C   UNL     1      25.513  22.532  -8.473  1.00  0.00     0.191 C 
BRANCH  27  28
ATOM     28  O   UNL     1      25.677  23.864  -8.965  1.00  0.00    -0.394 OA
ATOM     29  H   UNL     1      25.415  24.450  -8.226  1.00  0.00     0.210 HD
ENDBRANCH  27  28
ENDBRANCH  21  27
BRANCH  22  30
ATOM     30  O   UNL     1      24.496  22.199 -11.263  1.00  0.00    -0.387 OA
ATOM     31  H   UNL     1      23.545  22.011 -11.410  1.00  0.00     0.211 HD
ENDBRANCH  22  30
ENDBRANCH   1  17
TORSDOF 10
ENDMDL
MODEL 8
REMARK VINA RESULT:    -6.939      5.845      8.561
REMARK INTER + INTRA:         -10.335
REMARK INTER:                  -9.375
REMARK INTRA:                  -0.960
REMARK UNBOUND:                -0.353
REMARK SMILES O=C([O-])C1=CO[C@@H](O[C@@H]2O[C@H](CO)[C@@H](O)[C@H](O)[C@H]2O)[C@@H]2[C@@H](CO)CC[C@H]12
REMARK SMILES IDX 8 1 7 2 24 3 25 4 21 5 26 6 20 7 4 8 5 9 6 10 22 11 23 12
REMARK SMILES IDX 2 14 1 15 3 16 9 17 18 18 10 19 16 20 11 21 14 22 19 23
REMARK SMILES IDX 17 25 12 27 13 28 15 30
REMARK H PARENT 23 13 19 24 17 26 13 29 15 31
ROOT
ATOM      1  O   UNL     1      24.316  20.275 -10.128  1.00  0.00    -0.310 OA
ENDROOT
BRANCH   1   2
ATOM      2  C   UNL     1      23.570  20.776 -11.247  1.00  0.00     0.313 C 
ATOM      3  C   UNL     1      21.166  23.708 -11.041  1.00  0.00     0.007 C 
ATOM      4  C   UNL     1      22.410  24.260 -10.347  1.00  0.00     0.009 C 
ATOM      5  C   UNL     1      21.651  22.453 -11.759  1.00  0.00     0.024 C 
ATOM      6  C   UNL     1      23.412  23.092 -10.231  1.00  0.00     0.034 C 
ATOM      7  C   UNL     1      22.623  21.859 -10.725  1.00  0.00     0.071 C 
ATOM      8  C   UNL     1      24.656  23.310 -11.053  1.00  0.00     0.013 C 
ATOM      9  C   UNL     1      25.043  22.449 -12.003  1.00  0.00     0.196 C 
ATOM     10  O   UNL     1      24.427  21.258 -12.293  1.00  0.00    -0.472 OA
BRANCH   5  11
ATOM     11  C   UNL     1      20.502  21.533 -12.149  1.00  0.00     0.160 C 
BRANCH  11  12
ATOM     12  O   UNL     1      19.688  21.228 -11.024  1.00  0.00    -0.396 OA
ATOM     13  H   UNL     1      19.412  20.298 -11.112  1.00  0.00     0.210 HD
ENDBRANCH  11  12
ENDBRANCH   5  11
BRANCH   8  14
ATOM     14  C   UNL     1      25.514  24.563 -10.785  1.00  0.00     0.071 C 
ATOM     15  O   UNL     1      25.320  25.538 -11.564  1.00  0.00    -0.545 OA
ATOM     16  O   UNL     1      26.317  24.454  -9.815  1.00  0.00    -0.545 OA
ENDBRANCH   8  14
ENDBRANCH   1   2
BRANCH   1  17
ATOM     17  C   UNL     1      25.216  19.236 -10.496  1.00  0.00     0.286 C 
ATOM     18  C   UNL     1      26.348  19.264  -9.452  1.00  0.00     0.202 C 
ATOM     19  O   UNL     1      24.536  17.978 -10.470  1.00  0.00    -0.341 OA
ATOM     20  C   UNL     1      27.303  18.102  -9.702  1.00  0.00     0.179 C 
ATOM     21  C   UNL     1      25.410  16.877 -10.780  1.00  0.00     0.178 C 
ATOM     22  C   UNL     1      26.542  16.777  -9.751  1.00  0.00     0.177 C 
BRANCH  18  23
ATOM     23  O   UNL     1      27.107  20.481  -9.504  1.00  0.00    -0.385 OA
ATOM     24  H   UNL     1      27.404  20.659  -8.584  1.00  0.00     0.211 HD
ENDBRANCH  18  23
BRANCH  20  25
ATOM     25  O   UNL     1      28.297  18.034  -8.664  1.00  0.00    -0.387 OA
ATOM     26  H   UNL     1      29.130  18.295  -9.112  1.00  0.00     0.211 HD
ENDBRANCH  20  25
BRANCH  21  27
ATOM     27  C   UNL     1      24.555  15.605 -10.792  1.00  0.00     0.191 C 
BRANCH  27  28
ATOM     28  O   UNL     1      24.856  14.809  -9.643  1.00  0.00    -0.394 OA
ATOM     29  H   UNL     1      24.411  13.952  -9.795  1.00  0.00     0.210 HD
ENDBRANCH  27  28
ENDBRANCH  21  27
BRANCH  22  30
ATOM     30  O   UNL     1      27.453  15.724 -10.074  1.00  0.00    -0.387 OA
ATOM     31  H   UNL     1      28.293  15.976  -9.636  1.00  0.00     0.211 HD
ENDBRANCH  22  30
ENDBRANCH   1  17
TORSDOF 10
ENDMDL
MODEL 9
REMARK VINA RESULT:    -6.724      7.666     11.122
REMARK INTER + INTRA:         -10.026
REMARK INTER:                  -9.053
REMARK INTRA:                  -0.973
REMARK UNBOUND:                -0.353
REMARK SMILES O=C([O-])C1=CO[C@@H](O[C@@H]2O[C@H](CO)[C@@H](O)[C@H](O)[C@H]2O)[C@@H]2[C@@H](CO)CC[C@H]12
REMARK SMILES IDX 8 1 7 2 24 3 25 4 21 5 26 6 20 7 4 8 5 9 6 10 22 11 23 12
REMARK SMILES IDX 2 14 1 15 3 16 9 17 18 18 10 19 16 20 11 21 14 22 19 23
REMARK SMILES IDX 17 25 12 27 13 28 15 30
REMARK H PARENT 23 13 19 24 17 26 13 29 15 31
ROOT
ATOM      1  O   UNL     1      24.959  23.767 -10.686  1.00  0.00    -0.310 OA
ENDROOT
BRANCH   1   2
ATOM      2  C   UNL     1      23.817  23.478 -11.506  1.00  0.00     0.313 C 
ATOM      3  C   UNL     1      20.225  23.859 -10.334  1.00  0.00     0.007 C 
ATOM      4  C   UNL     1      20.843  25.194  -9.922  1.00  0.00     0.009 C 
ATOM      5  C   UNL     1      21.235  23.248 -11.300  1.00  0.00     0.024 C 
ATOM      6  C   UNL     1      22.356  25.094 -10.211  1.00  0.00     0.034 C 
ATOM      7  C   UNL     1      22.570  23.623 -10.631  1.00  0.00     0.071 C 
ATOM      8  C   UNL     1      22.805  26.041 -11.293  1.00  0.00     0.013 C 
ATOM      9  C   UNL     1      23.412  25.615 -12.408  1.00  0.00     0.196 C 
ATOM     10  O   UNL     1      23.765  24.316 -12.671  1.00  0.00    -0.472 OA
BRANCH   5  11
ATOM     11  C   UNL     1      21.020  21.753 -11.489  1.00  0.00     0.160 C 
BRANCH  11  12
ATOM     12  O   UNL     1      19.736  21.360 -11.023  1.00  0.00    -0.396 OA
ATOM     13  H   UNL     1      19.808  21.222 -10.061  1.00  0.00     0.210 HD
ENDBRANCH  11  12
ENDBRANCH   5  11
BRANCH   8  14
ATOM     14  C   UNL     1      22.562  27.553 -11.106  1.00  0.00     0.071 C 
ATOM     15  O   UNL     1      21.657  28.057 -11.828  1.00  0.00    -0.545 OA
ATOM     16  O   UNL     1      23.310  28.104 -10.249  1.00  0.00    -0.545 OA
ENDBRANCH   8  14
ENDBRANCH   1   2
BRANCH   1  17
ATOM     17  C   UNL     1      25.722  22.604 -10.388  1.00  0.00     0.286 C 
ATOM     18  C   UNL     1      25.195  22.083  -9.039  1.00  0.00     0.202 C 
ATOM     19  O   UNL     1      25.533  21.627 -11.416  1.00  0.00    -0.341 OA
ATOM     20  C   UNL     1      25.880  20.765  -8.696  1.00  0.00     0.179 C 
ATOM     21  C   UNL     1      26.237  20.402 -11.143  1.00  0.00     0.178 C 
ATOM     22  C   UNL     1      25.732  19.765  -9.843  1.00  0.00     0.177 C 
BRANCH  18  23
ATOM     23  O   UNL     1      25.441  23.003  -7.965  1.00  0.00    -0.385 OA
ATOM     24  H   UNL     1      25.305  23.903  -8.336  1.00  0.00     0.211 HD
ENDBRANCH  18  23
BRANCH  20  25
ATOM     25  O   UNL     1      25.311  20.197  -7.503  1.00  0.00    -0.387 OA
ATOM     26  H   UNL     1      26.089  19.900  -6.984  1.00  0.00     0.211 HD
ENDBRANCH  20  25
BRANCH  21  27
ATOM     27  C   UNL     1      26.017  19.472 -12.340  1.00  0.00     0.191 C 
BRANCH  27  28
ATOM     28  O   UNL     1      26.969  18.406 -12.307  1.00  0.00    -0.394 OA
ATOM     29  H   UNL     1      27.397  18.465 -11.429  1.00  0.00     0.210 HD
ENDBRANCH  27  28
ENDBRANCH  21  27
BRANCH  22  30
ATOM     30  O   UNL     1      26.460  18.575  -9.525  1.00  0.00    -0.387 OA
ATOM     31  H   UNL     1      27.222  18.576 -10.141  1.00  0.00     0.211 HD
ENDBRANCH  22  30
ENDBRANCH   1  17
TORSDOF 10
ENDMDL
