MODEL 1
REMARK VINA RESULT:    -7.027      0.000      0.000
REMARK INTER + INTRA:          -8.191
REMARK INTER:                  -8.054
REMARK INTRA:                  -0.138
REMARK UNBOUND:                -0.138
REMARK SMILES O=C([O-])/C=C/c1ccc(O)cc1
REMARK SMILES IDX 7 1 8 2 9 3 11 4 12 5 6 6 5 7 4 8 2 9 1 10 3 11 10 12
REMARK H PARENT 10 13
ROOT
ATOM      1  C   UNL     1      27.206  16.488  -5.275  1.00  0.00     0.012 A 
ATOM      2  C   UNL     1      25.941  16.682  -5.835  1.00  0.00     0.047 A 
ATOM      3  C   UNL     1      25.634  16.101  -7.059  1.00  0.00     0.115 A 
ATOM      4  C   UNL     1      26.574  15.332  -7.737  1.00  0.00     0.047 A 
ATOM      5  C   UNL     1      27.840  15.142  -7.173  1.00  0.00     0.012 A 
ATOM      6  C   UNL     1      28.166  15.706  -5.931  1.00  0.00    -0.025 A 
ENDROOT
BRANCH   6   7
ATOM      7  C   UNL     1      29.519  15.498  -5.398  1.00  0.00     0.010 C 
ATOM      8  C   UNL     1      29.827  15.392  -4.096  1.00  0.00     0.025 C 
BRANCH   8   9
ATOM      9  C   UNL     1      31.261  15.164  -3.611  1.00  0.00     0.064 C 
ATOM     10  O   UNL     1      32.139  15.442  -4.476  1.00  0.00    -0.545 OA
ATOM     11  O   UNL     1      31.396  14.736  -2.432  1.00  0.00    -0.545 OA
ENDBRANCH   8   9
ENDBRANCH   6   7
BRANCH   3  12
ATOM     12  O   UNL     1      24.389  16.313  -7.574  1.00  0.00    -0.508 OA
ATOM     13  H   UNL     1      24.126  17.222  -7.357  1.00  0.00     0.293 HD
ENDBRANCH   3  12
TORSDOF 3
ENDMDL
MODEL 2
REMARK VINA RESULT:    -6.983      0.090      1.678
REMARK INTER + INTRA:          -8.142
REMARK INTER:                  -7.993
REMARK INTRA:                  -0.148
REMARK UNBOUND:                -0.138
REMARK SMILES O=C([O-])/C=C/c1ccc(O)cc1
REMARK SMILES IDX 7 1 8 2 9 3 11 4 12 5 6 6 5 7 4 8 2 9 1 10 3 11 10 12
REMARK H PARENT 10 13
ROOT
ATOM      1  C   UNL     1      27.811  15.173  -7.283  1.00  0.00     0.012 A 
ATOM      2  C   UNL     1      26.523  15.375  -7.785  1.00  0.00     0.047 A 
ATOM      3  C   UNL     1      25.606  16.116  -7.049  1.00  0.00     0.115 A 
ATOM      4  C   UNL     1      25.955  16.654  -5.814  1.00  0.00     0.047 A 
ATOM      5  C   UNL     1      27.246  16.449  -5.316  1.00  0.00     0.012 A 
ATOM      6  C   UNL     1      28.191  15.717  -6.049  1.00  0.00    -0.025 A 
ENDROOT
BRANCH   6   7
ATOM      7  C   UNL     1      29.523  15.506  -5.466  1.00  0.00     0.010 C 
ATOM      8  C   UNL     1      29.786  15.423  -4.153  1.00  0.00     0.025 C 
BRANCH   8   9
ATOM      9  C   UNL     1      31.200  15.189  -3.615  1.00  0.00     0.064 C 
ATOM     10  O   UNL     1      31.227  14.800  -2.413  1.00  0.00    -0.545 OA
ATOM     11  O   UNL     1      32.151  15.407  -4.416  1.00  0.00    -0.545 OA
ENDBRANCH   8   9
ENDBRANCH   6   7
BRANCH   3  12
ATOM     12  O   UNL     1      24.358  16.292  -7.571  1.00  0.00    -0.508 OA
ATOM     13  H   UNL     1      23.715  16.163  -6.855  1.00  0.00     0.293 HD
ENDBRANCH   3  12
TORSDOF 3
ENDMDL
MODEL 3
REMARK VINA RESULT:    -6.680      3.286      7.563
REMARK INTER + INTRA:          -7.794
REMARK INTER:                  -7.655
REMARK INTRA:                  -0.139
REMARK UNBOUND:                -0.138
REMARK SMILES O=C([O-])/C=C/c1ccc(O)cc1
REMARK SMILES IDX 7 1 8 2 9 3 11 4 12 5 6 6 5 7 4 8 2 9 1 10 3 11 10 12
REMARK H PARENT 10 13
ROOT
ATOM      1  C   UNL     1      33.231  14.793  -2.199  1.00  0.00     0.012 A 
ATOM      2  C   UNL     1      34.390  14.456  -1.496  1.00  0.00     0.047 A 
ATOM      3  C   UNL     1      35.617  14.466  -2.147  1.00  0.00     0.115 A 
ATOM      4  C   UNL     1      35.704  14.804  -3.494  1.00  0.00     0.047 A 
ATOM      5  C   UNL     1      34.541  15.140  -4.194  1.00  0.00     0.012 A 
ATOM      6  C   UNL     1      33.294  15.151  -3.552  1.00  0.00    -0.025 A 
ENDROOT
BRANCH   6   7
ATOM      7  C   UNL     1      32.100  15.484  -4.341  1.00  0.00     0.010 C 
ATOM      8  C   UNL     1      30.846  15.121  -4.033  1.00  0.00     0.025 C 
BRANCH   8   9
ATOM      9  C   UNL     1      29.645  15.513  -4.896  1.00  0.00     0.064 C 
ATOM     10  O   UNL     1      29.884  15.490  -6.137  1.00  0.00    -0.545 OA
ATOM     11  O   UNL     1      28.581  15.806  -4.284  1.00  0.00    -0.545 OA
ENDBRANCH   8   9
ENDBRANCH   6   7
BRANCH   3  12
ATOM     12  O   UNL     1      36.727  14.132  -1.428  1.00  0.00    -0.508 OA
ATOM     13  H   UNL     1      36.436  13.845  -0.547  1.00  0.00     0.293 HD
ENDBRANCH   3  12
TORSDOF 3
ENDMDL
MODEL 4
REMARK VINA RESULT:    -6.620      3.207      7.544
REMARK INTER + INTRA:          -7.725
REMARK INTER:                  -7.578
REMARK INTRA:                  -0.147
REMARK UNBOUND:                -0.138
REMARK SMILES O=C([O-])/C=C/c1ccc(O)cc1
REMARK SMILES IDX 7 1 8 2 9 3 11 4 12 5 6 6 5 7 4 8 2 9 1 10 3 11 10 12
REMARK H PARENT 10 13
ROOT
ATOM      1  C   UNL     1      34.457  15.161  -4.247  1.00  0.00     0.012 A 
ATOM      2  C   UNL     1      35.580  14.841  -3.480  1.00  0.00     0.047 A 
ATOM      3  C   UNL     1      35.426  14.511  -2.139  1.00  0.00     0.115 A 
ATOM      4  C   UNL     1      34.165  14.498  -1.550  1.00  0.00     0.047 A 
ATOM      5  C   UNL     1      33.044  14.820  -2.323  1.00  0.00     0.012 A 
ATOM      6  C   UNL     1      33.175  15.142  -3.681  1.00  0.00    -0.025 A 
ENDROOT
BRANCH   6   7
ATOM      7  C   UNL     1      31.968  15.500  -4.438  1.00  0.00     0.010 C 
ATOM      8  C   UNL     1      30.720  15.119  -4.127  1.00  0.00     0.025 C 
BRANCH   8   9
ATOM      9  C   UNL     1      29.505  15.540  -4.956  1.00  0.00     0.064 C 
ATOM     10  O   UNL     1      29.671  15.408  -6.202  1.00  0.00    -0.545 OA
ATOM     11  O   UNL     1      28.502  15.959  -4.315  1.00  0.00    -0.545 OA
ENDBRANCH   8   9
ENDBRANCH   6   7
BRANCH   3  12
ATOM     12  O   UNL     1      36.545  14.204  -1.422  1.00  0.00    -0.508 OA
ATOM     13  H   UNL     1      36.869  13.342  -1.730  1.00  0.00     0.293 HD
ENDBRANCH   3  12
TORSDOF 3
ENDMDL
MODEL 5
REMARK VINA RESULT:    -6.612      3.114      7.381
REMARK INTER + INTRA:          -7.716
REMARK INTER:                  -7.578
REMARK INTRA:                  -0.138
REMARK UNBOUND:                -0.138
REMARK SMILES O=C([O-])/C=C/c1ccc(O)cc1
REMARK SMILES IDX 7 1 8 2 9 3 11 4 12 5 6 6 5 7 4 8 2 9 1 10 3 11 10 12
REMARK H PARENT 10 13
ROOT
ATOM      1  C   UNL     1      32.850  14.799  -2.317  1.00  0.00     0.012 A 
ATOM      2  C   UNL     1      33.992  14.495  -1.571  1.00  0.00     0.047 A 
ATOM      3  C   UNL     1      35.240  14.526  -2.181  1.00  0.00     0.115 A 
ATOM      4  C   UNL     1      35.366  14.851  -3.527  1.00  0.00     0.047 A 
ATOM      5  C   UNL     1      34.220  15.154  -4.270  1.00  0.00     0.012 A 
ATOM      6  C   UNL     1      32.952  15.144  -3.671  1.00  0.00    -0.025 A 
ENDROOT
BRANCH   6   7
ATOM      7  C   UNL     1      31.778  15.442  -4.504  1.00  0.00     0.010 C 
ATOM      8  C   UNL     1      30.508  15.154  -4.179  1.00  0.00     0.025 C 
BRANCH   8   9
ATOM      9  C   UNL     1      29.331  15.504  -5.091  1.00  0.00     0.064 C 
ATOM     10  O   UNL     1      28.326  15.956  -4.472  1.00  0.00    -0.545 OA
ATOM     11  O   UNL     1      29.497  15.307  -6.326  1.00  0.00    -0.545 OA
ENDBRANCH   8   9
ENDBRANCH   6   7
BRANCH   3  12
ATOM     12  O   UNL     1      36.331  14.223  -1.421  1.00  0.00    -0.508 OA
ATOM     13  H   UNL     1      36.886  13.607  -1.927  1.00  0.00     0.293 HD
ENDBRANCH   3  12
TORSDOF 3
ENDMDL
MODEL 6
REMARK VINA RESULT:    -6.244      2.396      6.677
REMARK INTER + INTRA:          -7.295
REMARK INTER:                  -7.143
REMARK INTRA:                  -0.151
REMARK UNBOUND:                -0.138
REMARK SMILES O=C([O-])/C=C/c1ccc(O)cc1
REMARK SMILES IDX 7 1 8 2 9 3 11 4 12 5 6 6 5 7 4 8 2 9 1 10 3 11 10 12
REMARK H PARENT 10 13
ROOT
ATOM      1  C   UNL     1      32.999  15.352  -4.448  1.00  0.00     0.012 A 
ATOM      2  C   UNL     1      34.003  15.024  -3.534  1.00  0.00     0.047 A 
ATOM      3  C   UNL     1      33.659  14.551  -2.274  1.00  0.00     0.115 A 
ATOM      4  C   UNL     1      32.324  14.404  -1.910  1.00  0.00     0.047 A 
ATOM      5  C   UNL     1      31.323  14.734  -2.829  1.00  0.00     0.012 A 
ATOM      6  C   UNL     1      31.648  15.199  -4.111  1.00  0.00    -0.025 A 
ENDROOT
BRANCH   6   7
ATOM      7  C   UNL     1      30.557  15.560  -5.027  1.00  0.00     0.010 C 
ATOM      8  C   UNL     1      29.249  15.428  -4.758  1.00  0.00     0.025 C 
BRANCH   8   9
ATOM      9  C   UNL     1      28.163  15.836  -5.756  1.00  0.00     0.064 C 
ATOM     10  O   UNL     1      26.992  15.768  -5.288  1.00  0.00    -0.545 OA
ATOM     11  O   UNL     1      28.555  16.186  -6.904  1.00  0.00    -0.545 OA
ENDBRANCH   8   9
ENDBRANCH   6   7
BRANCH   3  12
ATOM     12  O   UNL     1      34.666  14.240  -1.408  1.00  0.00    -0.508 OA
ATOM     13  H   UNL     1      35.363  13.788  -1.911  1.00  0.00     0.293 HD
ENDBRANCH   3  12
TORSDOF 3
ENDMDL
MODEL 7
REMARK VINA RESULT:    -6.089      4.551      6.931
REMARK INTER + INTRA:          -7.116
REMARK INTER:                  -6.979
REMARK INTRA:                  -0.137
REMARK UNBOUND:                -0.138
REMARK SMILES O=C([O-])/C=C/c1ccc(O)cc1
REMARK SMILES IDX 7 1 8 2 9 3 11 4 12 5 6 6 5 7 4 8 2 9 1 10 3 11 10 12
REMARK H PARENT 10 13
ROOT
ATOM      1  C   UNL     1      33.992  15.262  -3.859  1.00  0.00     0.012 A 
ATOM      2  C   UNL     1      32.826  15.523  -4.584  1.00  0.00     0.047 A 
ATOM      3  C   UNL     1      31.587  15.271  -4.010  1.00  0.00     0.115 A 
ATOM      4  C   UNL     1      31.493  14.756  -2.720  1.00  0.00     0.047 A 
ATOM      5  C   UNL     1      32.662  14.496  -1.999  1.00  0.00     0.012 A 
ATOM      6  C   UNL     1      33.923  14.758  -2.554  1.00  0.00    -0.025 A 
ENDROOT
BRANCH   6   7
ATOM      7  C   UNL     1      35.120  14.438  -1.763  1.00  0.00     0.010 C 
ATOM      8  C   UNL     1      36.293  14.030  -2.270  1.00  0.00     0.025 C 
BRANCH   8   9
ATOM      9  C   UNL     1      37.505  13.726  -1.386  1.00  0.00     0.064 C 
ATOM     10  O   UNL     1      37.252  12.933  -0.435  1.00  0.00    -0.545 OA
ATOM     11  O   UNL     1      38.589  14.288  -1.702  1.00  0.00    -0.545 OA
ENDBRANCH   8   9
ENDBRANCH   6   7
BRANCH   3  12
ATOM     12  O   UNL     1      30.472  15.538  -4.748  1.00  0.00    -0.508 OA
ATOM     13  H   UNL     1      29.819  14.844  -4.564  1.00  0.00     0.293 HD
ENDBRANCH   3  12
TORSDOF 3
ENDMDL
MODEL 8
REMARK VINA RESULT:    -6.057      4.535      8.897
REMARK INTER + INTRA:          -7.080
REMARK INTER:                  -6.949
REMARK INTRA:                  -0.131
REMARK UNBOUND:                -0.138
REMARK SMILES O=C([O-])/C=C/c1ccc(O)cc1
REMARK SMILES IDX 7 1 8 2 9 3 11 4 12 5 6 6 5 7 4 8 2 9 1 10 3 11 10 12
REMARK H PARENT 10 13
ROOT
ATOM      1  C   UNL     1      35.868  14.028  -4.621  1.00  0.00     0.012 A 
ATOM      2  C   UNL     1      37.179  13.594  -4.405  1.00  0.00     0.047 A 
ATOM      3  C   UNL     1      37.806  13.873  -3.198  1.00  0.00     0.115 A 
ATOM      4  C   UNL     1      37.145  14.585  -2.201  1.00  0.00     0.047 A 
ATOM      5  C   UNL     1      35.834  15.017  -2.422  1.00  0.00     0.012 A 
ATOM      6  C   UNL     1      35.176  14.733  -3.627  1.00  0.00    -0.025 A 
ENDROOT
BRANCH   6   7
ATOM      7  C   UNL     1      33.809  15.236  -3.819  1.00  0.00     0.010 C 
ATOM      8  C   UNL     1      32.690  14.581  -3.470  1.00  0.00     0.025 C 
BRANCH   8   9
ATOM      9  C   UNL     1      31.296  15.172  -3.689  1.00  0.00     0.064 C 
ATOM     10  O   UNL     1      31.083  15.544  -4.878  1.00  0.00    -0.545 OA
ATOM     11  O   UNL     1      30.538  15.218  -2.681  1.00  0.00    -0.545 OA
ENDBRANCH   8   9
ENDBRANCH   6   7
BRANCH   3  12
ATOM     12  O   UNL     1      39.085  13.434  -3.023  1.00  0.00    -0.508 OA
ATOM     13  H   UNL     1      39.065  12.464  -2.981  1.00  0.00     0.293 HD
ENDBRANCH   3  12
TORSDOF 3
ENDMDL
MODEL 9
REMARK VINA RESULT:    -5.926      5.958      8.594
REMARK INTER + INTRA:          -6.930
REMARK INTER:                  -6.799
REMARK INTRA:                  -0.130
REMARK UNBOUND:                -0.138
REMARK SMILES O=C([O-])/C=C/c1ccc(O)cc1
REMARK SMILES IDX 7 1 8 2 9 3 11 4 12 5 6 6 5 7 4 8 2 9 1 10 3 11 10 12
REMARK H PARENT 10 13
ROOT
ATOM      1  C   UNL     1      34.702  14.455  -1.449  1.00  0.00     0.012 A 
ATOM      2  C   UNL     1      33.388  14.622  -1.895  1.00  0.00     0.047 A 
ATOM      3  C   UNL     1      33.147  14.902  -3.234  1.00  0.00     0.115 A 
ATOM      4  C   UNL     1      34.199  15.023  -4.136  1.00  0.00     0.047 A 
ATOM      5  C   UNL     1      35.512  14.856  -3.684  1.00  0.00     0.012 A 
ATOM      6  C   UNL     1      35.778  14.558  -2.340  1.00  0.00    -0.025 A 
ENDROOT
BRANCH   6   7
ATOM      7  C   UNL     1      37.177  14.421  -1.913  1.00  0.00     0.010 C 
ATOM      8  C   UNL     1      37.689  13.357  -1.275  1.00  0.00     0.025 C 
BRANCH   8   9
ATOM      9  C   UNL     1      39.162  13.277  -0.870  1.00  0.00     0.064 C 
ATOM     10  O   UNL     1      39.342  13.243   0.381  1.00  0.00    -0.545 OA
ATOM     11  O   UNL     1      40.005  13.255  -1.808  1.00  0.00    -0.545 OA
ENDBRANCH   8   9
ENDBRANCH   6   7
BRANCH   3  12
ATOM     12  O   UNL     1      31.852  15.058  -3.633  1.00  0.00    -0.508 OA
ATOM     13  H   UNL     1      31.400  14.205  -3.521  1.00  0.00     0.293 HD
ENDBRANCH   3  12
TORSDOF 3
ENDMDL
