MODEL 1
REMARK VINA RESULT:    -7.036      0.000      0.000
REMARK INTER + INTRA:          -8.416
REMARK INTER:                  -8.270
REMARK INTRA:                  -0.146
REMARK UNBOUND:                -0.146
REMARK SMILES O=C([O-])/C=C/c1ccc(O)c(O)c1
REMARK SMILES IDX 7 1 8 2 9 3 11 4 13 5 6 6 5 7 4 8 2 9 1 10 3 11 10 12 12 14
REMARK H PARENT 10 13 12 15
ROOT
ATOM      1  C   UNL     1      27.264  16.475  -5.279  1.00  0.00     0.012 A 
ATOM      2  C   UNL     1      25.978  16.708  -5.779  1.00  0.00     0.051 A 
ATOM      3  C   UNL     1      25.621  16.155  -7.001  1.00  0.00     0.157 A 
ATOM      4  C   UNL     1      26.533  15.385  -7.719  1.00  0.00     0.157 A 
ATOM      5  C   UNL     1      27.812  15.150  -7.226  1.00  0.00     0.058 A 
ATOM      6  C   UNL     1      28.188  15.687  -5.989  1.00  0.00    -0.022 A 
ENDROOT
BRANCH   6   7
ATOM      7  C   UNL     1      29.530  15.507  -5.418  1.00  0.00     0.010 C 
ATOM      8  C   UNL     1      29.800  15.328  -4.116  1.00  0.00     0.025 C 
BRANCH   8   9
ATOM      9  C   UNL     1      31.230  15.171  -3.596  1.00  0.00     0.064 C 
ATOM     10  O   UNL     1      31.356  14.827  -2.387  1.00  0.00    -0.545 OA
ATOM     11  O   UNL     1      32.117  15.410  -4.464  1.00  0.00    -0.545 OA
ENDBRANCH   8   9
ENDBRANCH   6   7
BRANCH   3  12
ATOM     12  O   UNL     1      24.379  16.346  -7.544  1.00  0.00    -0.504 OA
ATOM     13  H   UNL     1      24.458  17.050  -8.209  1.00  0.00     0.293 HD
ENDBRANCH   3  12
BRANCH   4  14
ATOM     14  O   UNL     1      26.168  14.857  -8.927  1.00  0.00    -0.504 OA
ATOM     15  H   UNL     1      25.317  15.290  -9.128  1.00  0.00     0.293 HD
ENDBRANCH   4  14
TORSDOF 4
ENDMDL
MODEL 2
REMARK VINA RESULT:    -6.986      4.858      7.147
REMARK INTER + INTRA:          -8.357
REMARK INTER:                  -8.235
REMARK INTRA:                  -0.122
REMARK UNBOUND:                -0.146
REMARK SMILES O=C([O-])/C=C/c1ccc(O)c(O)c1
REMARK SMILES IDX 7 1 8 2 9 3 11 4 13 5 6 6 5 7 4 8 2 9 1 10 3 11 10 12 12 14
REMARK H PARENT 10 13 12 15
ROOT
ATOM      1  C   UNL     1      32.957  14.402  -1.963  1.00  0.00     0.012 A 
ATOM      2  C   UNL     1      31.753  14.652  -2.629  1.00  0.00     0.051 A 
ATOM      3  C   UNL     1      31.788  15.244  -3.884  1.00  0.00     0.157 A 
ATOM      4  C   UNL     1      33.006  15.587  -4.467  1.00  0.00     0.157 A 
ATOM      5  C   UNL     1      34.206  15.340  -3.810  1.00  0.00     0.058 A 
ATOM      6  C   UNL     1      34.193  14.731  -2.548  1.00  0.00    -0.022 A 
ENDROOT
BRANCH   6   7
ATOM      7  C   UNL     1      35.417  14.466  -1.781  1.00  0.00     0.010 C 
ATOM      8  C   UNL     1      36.637  14.278  -2.310  1.00  0.00     0.025 C 
BRANCH   8   9
ATOM      9  C   UNL     1      37.862  13.982  -1.443  1.00  0.00     0.064 C 
ATOM     10  O   UNL     1      38.859  14.742  -1.597  1.00  0.00    -0.545 OA
ATOM     11  O   UNL     1      37.711  12.996  -0.667  1.00  0.00    -0.545 OA
ENDBRANCH   8   9
ENDBRANCH   6   7
BRANCH   3  12
ATOM     12  O   UNL     1      30.644  15.514  -4.587  1.00  0.00    -0.504 OA
ATOM     13  H   UNL     1      30.474  14.753  -5.168  1.00  0.00     0.293 HD
ENDBRANCH   3  12
BRANCH   4  14
ATOM     14  O   UNL     1      33.021  16.179  -5.700  1.00  0.00    -0.504 OA
ATOM     15  H   UNL     1      33.737  16.839  -5.637  1.00  0.00     0.293 HD
ENDBRANCH   4  14
TORSDOF 4
ENDMDL
MODEL 3
REMARK VINA RESULT:    -6.952      3.325      7.819
REMARK INTER + INTRA:          -8.317
REMARK INTER:                  -8.167
REMARK INTRA:                  -0.150
REMARK UNBOUND:                -0.146
REMARK SMILES O=C([O-])/C=C/c1ccc(O)c(O)c1
REMARK SMILES IDX 7 1 8 2 9 3 11 4 13 5 6 6 5 7 4 8 2 9 1 10 3 11 10 12 12 14
REMARK H PARENT 10 13 12 15
ROOT
ATOM      1  C   UNL     1      32.956  14.820  -2.324  1.00  0.00     0.012 A 
ATOM      2  C   UNL     1      34.052  14.479  -1.524  1.00  0.00     0.051 A 
ATOM      3  C   UNL     1      35.319  14.464  -2.091  1.00  0.00     0.157 A 
ATOM      4  C   UNL     1      35.493  14.780  -3.437  1.00  0.00     0.157 A 
ATOM      5  C   UNL     1      34.407  15.120  -4.235  1.00  0.00     0.058 A 
ATOM      6  C   UNL     1      33.121  15.154  -3.680  1.00  0.00    -0.022 A 
ENDROOT
BRANCH   6   7
ATOM      7  C   UNL     1      31.923  15.474  -4.468  1.00  0.00     0.010 C 
ATOM      8  C   UNL     1      30.664  15.161  -4.124  1.00  0.00     0.025 C 
BRANCH   8   9
ATOM      9  C   UNL     1      29.468  15.509  -5.012  1.00  0.00     0.064 C 
ATOM     10  O   UNL     1      28.411  15.865  -4.421  1.00  0.00    -0.545 OA
ATOM     11  O   UNL     1      29.702  15.394  -6.249  1.00  0.00    -0.545 OA
ENDBRANCH   8   9
ENDBRANCH   6   7
BRANCH   3  12
ATOM     12  O   UNL     1      36.431  14.139  -1.362  1.00  0.00    -0.504 OA
ATOM     13  H   UNL     1      37.131  14.770  -1.603  1.00  0.00     0.293 HD
ENDBRANCH   3  12
BRANCH   4  14
ATOM     14  O   UNL     1      36.747  14.749  -3.981  1.00  0.00    -0.504 OA
ATOM     15  H   UNL     1      36.756  13.931  -4.511  1.00  0.00     0.293 HD
ENDBRANCH   4  14
TORSDOF 4
ENDMDL
MODEL 4
REMARK VINA RESULT:    -6.912      0.863      1.893
REMARK INTER + INTRA:          -8.270
REMARK INTER:                  -8.142
REMARK INTRA:                  -0.128
REMARK UNBOUND:                -0.146
REMARK SMILES O=C([O-])/C=C/c1ccc(O)c(O)c1
REMARK SMILES IDX 7 1 8 2 9 3 11 4 13 5 6 6 5 7 4 8 2 9 1 10 3 11 10 12 12 14
REMARK H PARENT 10 13 12 15
ROOT
ATOM      1  C   UNL     1      28.151  14.479  -7.719  1.00  0.00     0.012 A 
ATOM      2  C   UNL     1      27.007  14.320  -8.509  1.00  0.00     0.051 A 
ATOM      3  C   UNL     1      25.871  15.058  -8.204  1.00  0.00     0.157 A 
ATOM      4  C   UNL     1      25.873  15.940  -7.126  1.00  0.00     0.157 A 
ATOM      5  C   UNL     1      27.007  16.102  -6.339  1.00  0.00     0.058 A 
ATOM      6  C   UNL     1      28.168  15.377  -6.637  1.00  0.00    -0.022 A 
ENDROOT
BRANCH   6   7
ATOM      7  C   UNL     1      29.394  15.473  -5.833  1.00  0.00     0.010 C 
ATOM      8  C   UNL     1      29.496  15.150  -4.534  1.00  0.00     0.025 C 
BRANCH   8   9
ATOM      9  C   UNL     1      30.806  15.302  -3.758  1.00  0.00     0.064 C 
ATOM     10  O   UNL     1      30.755  15.075  -2.517  1.00  0.00    -0.545 OA
ATOM     11  O   UNL     1      31.788  15.638  -4.479  1.00  0.00    -0.545 OA
ENDBRANCH   8   9
ENDBRANCH   6   7
BRANCH   3  12
ATOM     12  O   UNL     1      24.721  14.947  -8.938  1.00  0.00    -0.504 OA
ATOM     13  H   UNL     1      24.976  14.686  -9.839  1.00  0.00     0.293 HD
ENDBRANCH   3  12
BRANCH   4  14
ATOM     14  O   UNL     1      24.742  16.651  -6.834  1.00  0.00    -0.504 OA
ATOM     15  H   UNL     1      24.251  16.074  -6.219  1.00  0.00     0.293 HD
ENDBRANCH   4  14
TORSDOF 4
ENDMDL
MODEL 5
REMARK VINA RESULT:    -6.899      1.426      6.017
REMARK INTER + INTRA:          -8.254
REMARK INTER:                  -8.135
REMARK INTRA:                  -0.119
REMARK UNBOUND:                -0.146
REMARK SMILES O=C([O-])/C=C/c1ccc(O)c(O)c1
REMARK SMILES IDX 7 1 8 2 9 3 11 4 13 5 6 6 5 7 4 8 2 9 1 10 3 11 10 12 12 14
REMARK H PARENT 10 13 12 15
ROOT
ATOM      1  C   UNL     1      29.988  14.976  -3.223  1.00  0.00     0.012 A 
ATOM      2  C   UNL     1      31.290  14.950  -2.711  1.00  0.00     0.051 A 
ATOM      3  C   UNL     1      32.345  15.308  -3.539  1.00  0.00     0.157 A 
ATOM      4  C   UNL     1      32.109  15.681  -4.860  1.00  0.00     0.157 A 
ATOM      5  C   UNL     1      30.818  15.708  -5.374  1.00  0.00     0.058 A 
ATOM      6  C   UNL     1      29.737  15.364  -4.551  1.00  0.00    -0.022 A 
ENDROOT
BRANCH   6   7
ATOM      7  C   UNL     1      28.349  15.341  -5.031  1.00  0.00     0.010 C 
ATOM      8  C   UNL     1      27.791  16.262  -5.833  1.00  0.00     0.025 C 
BRANCH   8   9
ATOM      9  C   UNL     1      26.327  16.180  -6.271  1.00  0.00     0.064 C 
ATOM     10  O   UNL     1      25.492  16.814  -5.568  1.00  0.00    -0.545 OA
ATOM     11  O   UNL     1      26.144  15.475  -7.304  1.00  0.00    -0.545 OA
ENDBRANCH   8   9
ENDBRANCH   6   7
BRANCH   3  12
ATOM     12  O   UNL     1      33.641  15.303  -3.097  1.00  0.00    -0.504 OA
ATOM     13  H   UNL     1      33.882  14.379  -2.913  1.00  0.00     0.293 HD
ENDBRANCH   3  12
BRANCH   4  14
ATOM     14  O   UNL     1      33.162  16.019  -5.665  1.00  0.00    -0.504 OA
ATOM     15  H   UNL     1      32.853  16.813  -6.140  1.00  0.00     0.293 HD
ENDBRANCH   4  14
TORSDOF 4
ENDMDL
MODEL 6
REMARK VINA RESULT:    -6.736      3.806      8.422
REMARK INTER + INTRA:          -8.063
REMARK INTER:                  -7.941
REMARK INTRA:                  -0.121
REMARK UNBOUND:                -0.146
REMARK SMILES O=C([O-])/C=C/c1ccc(O)c(O)c1
REMARK SMILES IDX 7 1 8 2 9 3 11 4 13 5 6 6 5 7 4 8 2 9 1 10 3 11 10 12 12 14
REMARK H PARENT 10 13 12 15
ROOT
ATOM      1  C   UNL     1      33.984  14.467  -1.694  1.00  0.00     0.012 A 
ATOM      2  C   UNL     1      35.298  14.393  -1.222  1.00  0.00     0.051 A 
ATOM      3  C   UNL     1      36.342  14.374  -2.138  1.00  0.00     0.157 A 
ATOM      4  C   UNL     1      36.080  14.424  -3.505  1.00  0.00     0.157 A 
ATOM      5  C   UNL     1      34.776  14.499  -3.979  1.00  0.00     0.058 A 
ATOM      6  C   UNL     1      33.709  14.532  -3.072  1.00  0.00    -0.022 A 
ENDROOT
BRANCH   6   7
ATOM      7  C   UNL     1      32.304  14.580  -3.499  1.00  0.00     0.010 C 
ATOM      8  C   UNL     1      31.797  15.436  -4.400  1.00  0.00     0.025 C 
BRANCH   8   9
ATOM      9  C   UNL     1      30.313  15.439  -4.775  1.00  0.00     0.064 C 
ATOM     10  O   UNL     1      30.044  15.461  -6.008  1.00  0.00    -0.545 OA
ATOM     11  O   UNL     1      29.537  15.416  -3.778  1.00  0.00    -0.545 OA
ENDBRANCH   8   9
ENDBRANCH   6   7
BRANCH   3  12
ATOM     12  O   UNL     1      37.650  14.302  -1.739  1.00  0.00    -0.504 OA
ATOM     13  H   UNL     1      38.175  14.036  -2.513  1.00  0.00     0.293 HD
ENDBRANCH   3  12
BRANCH   4  14
ATOM     14  O   UNL     1      37.120  14.393  -4.393  1.00  0.00    -0.504 OA
ATOM     15  H   UNL     1      36.716  14.658  -5.241  1.00  0.00     0.293 HD
ENDBRANCH   4  14
TORSDOF 4
ENDMDL
MODEL 7
REMARK VINA RESULT:    -6.678      2.349      6.800
REMARK INTER + INTRA:          -7.995
REMARK INTER:                  -7.872
REMARK INTRA:                  -0.123
REMARK UNBOUND:                -0.146
REMARK SMILES O=C([O-])/C=C/c1ccc(O)c(O)c1
REMARK SMILES IDX 7 1 8 2 9 3 11 4 13 5 6 6 5 7 4 8 2 9 1 10 3 11 10 12 12 14
REMARK H PARENT 10 13 12 15
ROOT
ATOM      1  C   UNL     1      31.493  14.452  -2.681  1.00  0.00     0.012 A 
ATOM      2  C   UNL     1      32.750  14.074  -2.197  1.00  0.00     0.051 A 
ATOM      3  C   UNL     1      33.883  14.435  -2.913  1.00  0.00     0.157 A 
ATOM      4  C   UNL     1      33.767  15.158  -4.098  1.00  0.00     0.157 A 
ATOM      5  C   UNL     1      32.520  15.536  -4.584  1.00  0.00     0.058 A 
ATOM      6  C   UNL     1      31.365  15.194  -3.869  1.00  0.00    -0.022 A 
ENDROOT
BRANCH   6   7
ATOM      7  C   UNL     1      30.013  15.532  -4.335  1.00  0.00     0.010 C 
ATOM      8  C   UNL     1      29.621  15.563  -5.619  1.00  0.00     0.025 C 
BRANCH   8   9
ATOM      9  C   UNL     1      28.198  15.950  -6.026  1.00  0.00     0.064 C 
ATOM     10  O   UNL     1      27.273  15.600  -5.241  1.00  0.00    -0.545 OA
ATOM     11  O   UNL     1      28.136  16.585  -7.116  1.00  0.00    -0.545 OA
ENDBRANCH   8   9
ENDBRANCH   6   7
BRANCH   3  12
ATOM     12  O   UNL     1      35.141  14.096  -2.491  1.00  0.00    -0.504 OA
ATOM     13  H   UNL     1      35.112  14.027  -1.522  1.00  0.00     0.293 HD
ENDBRANCH   3  12
BRANCH   4  14
ATOM     14  O   UNL     1      34.893  15.495  -4.797  1.00  0.00    -0.504 OA
ATOM     15  H   UNL     1      34.969  16.460  -4.674  1.00  0.00     0.293 HD
ENDBRANCH   4  14
TORSDOF 4
ENDMDL
MODEL 8
REMARK VINA RESULT:    -6.658      1.402      1.796
REMARK INTER + INTRA:          -7.971
REMARK INTER:                  -7.848
REMARK INTRA:                  -0.123
REMARK UNBOUND:                -0.146
REMARK SMILES O=C([O-])/C=C/c1ccc(O)c(O)c1
REMARK SMILES IDX 7 1 8 2 9 3 11 4 13 5 6 6 5 7 4 8 2 9 1 10 3 11 10 12 12 14
REMARK H PARENT 10 13 12 15
ROOT
ATOM      1  C   UNL     1      27.802  15.905  -4.804  1.00  0.00     0.012 A 
ATOM      2  C   UNL     1      26.797  16.319  -5.684  1.00  0.00     0.051 A 
ATOM      3  C   UNL     1      27.094  16.440  -7.035  1.00  0.00     0.157 A 
ATOM      4  C   UNL     1      28.376  16.157  -7.503  1.00  0.00     0.157 A 
ATOM      5  C   UNL     1      29.378  15.745  -6.632  1.00  0.00     0.058 A 
ATOM      6  C   UNL     1      29.096  15.603  -5.267  1.00  0.00    -0.022 A 
ENDROOT
BRANCH   6   7
ATOM      7  C   UNL     1      30.110  15.201  -4.283  1.00  0.00     0.010 C 
ATOM      8  C   UNL     1      31.438  15.254  -4.474  1.00  0.00     0.025 C 
BRANCH   8   9
ATOM      9  C   UNL     1      32.432  14.793  -3.407  1.00  0.00     0.064 C 
ATOM     10  O   UNL     1      33.353  14.019  -3.791  1.00  0.00    -0.545 OA
ATOM     11  O   UNL     1      32.197  15.261  -2.256  1.00  0.00    -0.545 OA
ENDBRANCH   8   9
ENDBRANCH   6   7
BRANCH   3  12
ATOM     12  O   UNL     1      26.154  16.840  -7.946  1.00  0.00    -0.504 OA
ATOM     13  H   UNL     1      25.420  16.205  -7.904  1.00  0.00     0.293 HD
ENDBRANCH   3  12
BRANCH   4  14
ATOM     14  O   UNL     1      28.653  16.293  -8.835  1.00  0.00    -0.504 OA
ATOM     15  H   UNL     1      29.540  16.698  -8.852  1.00  0.00     0.293 HD
ENDBRANCH   4  14
TORSDOF 4
ENDMDL
MODEL 9
REMARK VINA RESULT:    -6.449      3.122      7.754
REMARK INTER + INTRA:          -7.726
REMARK INTER:                  -7.575
REMARK INTRA:                  -0.150
REMARK UNBOUND:                -0.146
REMARK SMILES O=C([O-])/C=C/c1ccc(O)c(O)c1
REMARK SMILES IDX 7 1 8 2 9 3 11 4 13 5 6 6 5 7 4 8 2 9 1 10 3 11 10 12 12 14
REMARK H PARENT 10 13 12 15
ROOT
ATOM      1  C   UNL     1      33.466  15.346  -4.423  1.00  0.00     0.012 A 
ATOM      2  C   UNL     1      34.850  15.266  -4.239  1.00  0.00     0.051 A 
ATOM      3  C   UNL     1      35.341  14.791  -3.030  1.00  0.00     0.157 A 
ATOM      4  C   UNL     1      34.466  14.406  -2.016  1.00  0.00     0.157 A 
ATOM      5  C   UNL     1      33.090  14.483  -2.195  1.00  0.00     0.058 A 
ATOM      6  C   UNL     1      32.573  14.947  -3.412  1.00  0.00    -0.022 A 
ENDROOT
BRANCH   6   7
ATOM      7  C   UNL     1      31.132  15.084  -3.663  1.00  0.00     0.010 C 
ATOM      8  C   UNL     1      30.575  15.333  -4.859  1.00  0.00     0.025 C 
BRANCH   8   9
ATOM      9  C   UNL     1      29.063  15.487  -5.036  1.00  0.00     0.064 C 
ATOM     10  O   UNL     1      28.557  14.947  -6.059  1.00  0.00    -0.545 OA
ATOM     11  O   UNL     1      28.507  16.146  -4.112  1.00  0.00    -0.545 OA
ENDBRANCH   8   9
ENDBRANCH   6   7
BRANCH   3  12
ATOM     12  O   UNL     1      36.685  14.689  -2.788  1.00  0.00    -0.504 OA
ATOM     13  H   UNL     1      37.001  15.572  -2.531  1.00  0.00     0.293 HD
ENDBRANCH   3  12
BRANCH   4  14
ATOM     14  O   UNL     1      34.968  13.952  -0.828  1.00  0.00    -0.504 OA
ATOM     15  H   UNL     1      34.239  13.427  -0.448  1.00  0.00     0.293 HD
ENDBRANCH   4  14
TORSDOF 4
ENDMDL
