MODEL 1
REMARK VINA RESULT:    -5.965      0.000      0.000
REMARK INTER + INTRA:          -7.400
REMARK INTER:                  -7.185
REMARK INTRA:                  -0.214
REMARK UNBOUND:                -0.214
REMARK SMILES O=C1O[C@H]([C@@H](O)CO)C([O-])=C1O
REMARK SMILES IDX 5 1 7 2 8 3 4 5 9 6 3 7 11 8 2 9 1 10 10 11 12 12 6 14
REMARK H PARENT 8 4 12 13 6 15
ROOT
ATOM      1  C   UNL     1      29.167  15.573  -7.536  1.00  0.00     0.184 C 
ENDROOT
BRANCH   1   2
ATOM      2  C   UNL     1      29.462  15.603  -6.033  1.00  0.00     0.192 C 
BRANCH   2   3
ATOM      3  O   UNL     1      30.884  15.691  -5.844  1.00  0.00    -0.394 OA
ATOM      4  H   UNL     1      31.223  14.905  -6.322  1.00  0.00     0.210 HD
ENDBRANCH   2   3
ENDBRANCH   1   2
BRANCH   1   5
ATOM      5  C   UNL     1      27.706  15.929  -7.902  1.00  0.00     0.227 C 
ATOM      6  C   UNL     1      27.433  17.396  -8.112  1.00  0.00    -0.037 C 
ATOM      7  O   UNL     1      26.817  15.531  -6.842  1.00  0.00    -0.450 OA
ATOM      8  C   UNL     1      26.467  17.758  -7.269  1.00  0.00     0.193 C 
ATOM      9  C   UNL     1      26.056  16.601  -6.461  1.00  0.00     0.373 C 
ATOM     10  O   UNL     1      25.202  16.572  -5.591  1.00  0.00    -0.243 OA
ATOM     11  O   UNL     1      28.108  18.005  -8.985  1.00  0.00    -0.870 OA
BRANCH   8  12
ATOM     12  O   UNL     1      25.968  19.031  -7.192  1.00  0.00    -0.502 OA
ATOM     13  H   UNL     1      25.730  19.068  -6.240  1.00  0.00     0.293 HD
ENDBRANCH   8  12
ENDBRANCH   1   5
BRANCH   1  14
ATOM     14  O   UNL     1      30.102  16.463  -8.186  1.00  0.00    -0.387 OA
ATOM     15  H   UNL     1      29.695  17.359  -8.036  1.00  0.00     0.211 HD
ENDBRANCH   1  14
TORSDOF 5
ENDMDL
MODEL 2
REMARK VINA RESULT:    -5.750      5.574      8.734
REMARK INTER + INTRA:          -7.141
REMARK INTER:                  -6.811
REMARK INTRA:                  -0.330
REMARK UNBOUND:                -0.214
REMARK SMILES O=C1O[C@H]([C@@H](O)CO)C([O-])=C1O
REMARK SMILES IDX 5 1 7 2 8 3 4 5 9 6 3 7 11 8 2 9 1 10 10 11 12 12 6 14
REMARK H PARENT 8 4 12 13 6 15
ROOT
ATOM      1  C   UNL     1      32.746  15.537  -3.980  1.00  0.00     0.184 C 
ENDROOT
BRANCH   1   2
ATOM      2  C   UNL     1      31.231  15.346  -3.845  1.00  0.00     0.192 C 
BRANCH   2   3
ATOM      3  O   UNL     1      30.907  15.196  -2.453  1.00  0.00    -0.394 OA
ATOM      4  H   UNL     1      31.212  14.287  -2.248  1.00  0.00     0.210 HD
ENDBRANCH   2   3
ENDBRANCH   1   2
BRANCH   1   5
ATOM      5  C   UNL     1      33.578  14.294  -3.584  1.00  0.00     0.227 C 
ATOM      6  C   UNL     1      34.417  14.450  -2.341  1.00  0.00    -0.037 C 
ATOM      7  O   UNL     1      34.513  13.967  -4.628  1.00  0.00    -0.450 OA
ATOM      8  C   UNL     1      35.684  14.202  -2.668  1.00  0.00     0.193 C 
ATOM      9  C   UNL     1      35.772  13.889  -4.102  1.00  0.00     0.373 C 
ATOM     10  O   UNL     1      36.776  13.618  -4.741  1.00  0.00    -0.243 OA
ATOM     11  O   UNL     1      33.835  14.765  -1.268  1.00  0.00    -0.870 OA
BRANCH   8  12
ATOM     12  O   UNL     1      36.721  14.252  -1.775  1.00  0.00    -0.502 OA
ATOM     13  H   UNL     1      36.354  14.883  -1.117  1.00  0.00     0.293 HD
ENDBRANCH   8  12
ENDBRANCH   1   5
BRANCH   1  14
ATOM     14  O   UNL     1      33.018  15.939  -5.341  1.00  0.00    -0.387 OA
ATOM     15  H   UNL     1      32.107  16.053  -5.725  1.00  0.00     0.211 HD
ENDBRANCH   1  14
TORSDOF 5
ENDMDL
MODEL 3
REMARK VINA RESULT:    -5.735      1.292      1.406
REMARK INTER + INTRA:          -7.123
REMARK INTER:                  -6.683
REMARK INTRA:                  -0.440
REMARK UNBOUND:                -0.214
REMARK SMILES O=C1O[C@H]([C@@H](O)CO)C([O-])=C1O
REMARK SMILES IDX 5 1 7 2 8 3 4 5 9 6 3 7 11 8 2 9 1 10 10 11 12 12 6 14
REMARK H PARENT 8 4 12 13 6 15
ROOT
ATOM      1  C   UNL     1      28.440  16.382  -8.649  1.00  0.00     0.184 C 
ENDROOT
BRANCH   1   2
ATOM      2  C   UNL     1      29.065  15.721  -7.415  1.00  0.00     0.192 C 
BRANCH   2   3
ATOM      3  O   UNL     1      28.663  14.342  -7.377  1.00  0.00    -0.394 OA
ATOM      4  H   UNL     1      29.299  13.939  -6.748  1.00  0.00     0.210 HD
ENDBRANCH   2   3
ENDBRANCH   1   2
BRANCH   1   5
ATOM      5  C   UNL     1      26.983  16.859  -8.441  1.00  0.00     0.227 C 
ATOM      6  C   UNL     1      26.829  18.302  -8.036  1.00  0.00    -0.037 C 
ATOM      7  O   UNL     1      26.358  16.104  -7.386  1.00  0.00    -0.450 OA
ATOM      8  C   UNL     1      26.157  18.336  -6.886  1.00  0.00     0.193 C 
ATOM      9  C   UNL     1      25.843  16.965  -6.457  1.00  0.00     0.373 C 
ATOM     10  O   UNL     1      25.243  16.623  -5.451  1.00  0.00    -0.243 OA
ATOM     11  O   UNL     1      27.319  19.185  -8.790  1.00  0.00    -0.870 OA
BRANCH   8  12
ATOM     12  O   UNL     1      25.837  19.494  -6.229  1.00  0.00    -0.502 OA
ATOM     13  H   UNL     1      26.676  19.657  -5.745  1.00  0.00     0.293 HD
ENDBRANCH   8  12
ENDBRANCH   1   5
BRANCH   1  14
ATOM     14  O   UNL     1      29.299  17.475  -9.044  1.00  0.00    -0.387 OA
ATOM     15  H   UNL     1      28.730  18.275  -8.878  1.00  0.00     0.211 HD
ENDBRANCH   1  14
TORSDOF 5
ENDMDL
MODEL 4
REMARK VINA RESULT:    -5.687      7.568     10.236
REMARK INTER + INTRA:          -7.065
REMARK INTER:                  -6.438
REMARK INTRA:                  -0.627
REMARK UNBOUND:                -0.214
REMARK SMILES O=C1O[C@H]([C@@H](O)CO)C([O-])=C1O
REMARK SMILES IDX 5 1 7 2 8 3 4 5 9 6 3 7 11 8 2 9 1 10 10 11 12 12 6 14
REMARK H PARENT 8 4 12 13 6 15
ROOT
ATOM      1  C   UNL     1      34.715  14.789  -4.142  1.00  0.00     0.184 C 
ENDROOT
BRANCH   1   2
ATOM      2  C   UNL     1      33.443  14.938  -3.298  1.00  0.00     0.192 C 
BRANCH   2   3
ATOM      3  O   UNL     1      33.020  13.633  -2.869  1.00  0.00    -0.394 OA
ATOM      4  H   UNL     1      33.162  13.658  -1.900  1.00  0.00     0.210 HD
ENDBRANCH   2   3
ENDBRANCH   1   2
BRANCH   1   5
ATOM      5  C   UNL     1      36.023  14.768  -3.316  1.00  0.00     0.227 C 
ATOM      6  C   UNL     1      37.025  13.717  -3.723  1.00  0.00    -0.037 C 
ATOM      7  O   UNL     1      35.734  14.494  -1.933  1.00  0.00    -0.450 OA
ATOM      8  C   UNL     1      37.282  12.961  -2.657  1.00  0.00     0.193 C 
ATOM      9  C   UNL     1      36.487  13.433  -1.514  1.00  0.00     0.373 C 
ATOM     10  O   UNL     1      36.470  12.972  -0.384  1.00  0.00    -0.243 OA
ATOM     11  O   UNL     1      37.433  13.717  -4.916  1.00  0.00    -0.870 OA
BRANCH   8  12
ATOM     12  O   UNL     1      38.155  11.906  -2.669  1.00  0.00    -0.502 OA
ATOM     13  H   UNL     1      37.531  11.162  -2.521  1.00  0.00     0.293 HD
ENDBRANCH   8  12
ENDBRANCH   1   5
BRANCH   1  14
ATOM     14  O   UNL     1      34.577  13.590  -4.938  1.00  0.00    -0.387 OA
ATOM     15  H   UNL     1      34.132  13.923  -5.764  1.00  0.00     0.211 HD
ENDBRANCH   1  14
TORSDOF 5
ENDMDL
MODEL 5
REMARK VINA RESULT:    -5.680      5.392      7.674
REMARK INTER + INTRA:          -7.057
REMARK INTER:                  -6.920
REMARK INTRA:                  -0.137
REMARK UNBOUND:                -0.214
REMARK SMILES O=C1O[C@H]([C@@H](O)CO)C([O-])=C1O
REMARK SMILES IDX 5 1 7 2 8 3 4 5 9 6 3 7 11 8 2 9 1 10 10 11 12 12 6 14
REMARK H PARENT 8 4 12 13 6 15
ROOT
ATOM      1  C   UNL     1      35.349  13.864  -4.016  1.00  0.00     0.184 C 
ENDROOT
BRANCH   1   2
ATOM      2  C   UNL     1      36.852  14.146  -3.912  1.00  0.00     0.192 C 
BRANCH   2   3
ATOM      3  O   UNL     1      37.419  14.116  -5.232  1.00  0.00    -0.394 OA
ATOM      4  H   UNL     1      37.821  15.005  -5.325  1.00  0.00     0.210 HD
ENDBRANCH   2   3
ENDBRANCH   1   2
BRANCH   1   5
ATOM      5  C   UNL     1      34.452  15.072  -3.652  1.00  0.00     0.227 C 
ATOM      6  C   UNL     1      33.481  14.836  -2.524  1.00  0.00    -0.037 C 
ATOM      7  O   UNL     1      33.635  15.442  -4.778  1.00  0.00    -0.450 OA
ATOM      8  C   UNL     1      32.254  15.084  -2.981  1.00  0.00     0.193 C 
ATOM      9  C   UNL     1      32.323  15.473  -4.397  1.00  0.00     0.373 C 
ATOM     10  O   UNL     1      31.393  15.765  -5.130  1.00  0.00    -0.243 OA
ATOM     11  O   UNL     1      33.943  14.471  -1.410  1.00  0.00    -0.870 OA
BRANCH   8  12
ATOM     12  O   UNL     1      31.124  14.970  -2.216  1.00  0.00    -0.502 OA
ATOM     13  H   UNL     1      30.540  14.484  -2.838  1.00  0.00     0.293 HD
ENDBRANCH   8  12
ENDBRANCH   1   5
BRANCH   1  14
ATOM     14  O   UNL     1      35.081  13.397  -5.357  1.00  0.00    -0.387 OA
ATOM     15  H   UNL     1      34.939  12.420  -5.226  1.00  0.00     0.211 HD
ENDBRANCH   1  14
TORSDOF 5
ENDMDL
MODEL 6
REMARK VINA RESULT:    -5.598      1.410      4.196
REMARK INTER + INTRA:          -6.958
REMARK INTER:                  -6.389
REMARK INTRA:                  -0.569
REMARK UNBOUND:                -0.214
REMARK SMILES O=C1O[C@H]([C@@H](O)CO)C([O-])=C1O
REMARK SMILES IDX 5 1 7 2 8 3 4 5 9 6 3 7 11 8 2 9 1 10 10 11 12 12 6 14
REMARK H PARENT 8 4 12 13 6 15
ROOT
ATOM      1  C   UNL     1      25.756  17.595  -7.760  1.00  0.00     0.184 C 
ENDROOT
BRANCH   1   2
ATOM      2  C   UNL     1      26.296  18.854  -7.072  1.00  0.00     0.192 C 
BRANCH   2   3
ATOM      3  O   UNL     1      27.012  19.638  -8.040  1.00  0.00    -0.394 OA
ATOM      4  H   UNL     1      27.737  19.041  -8.321  1.00  0.00     0.210 HD
ENDBRANCH   2   3
ENDBRANCH   1   2
BRANCH   1   5
ATOM      5  C   UNL     1      26.825  16.794  -8.543  1.00  0.00     0.227 C 
ATOM      6  C   UNL     1      26.756  15.297  -8.378  1.00  0.00    -0.037 C 
ATOM      7  O   UNL     1      28.144  17.160  -8.099  1.00  0.00    -0.450 OA
ATOM      8  C   UNL     1      27.935  14.881  -7.918  1.00  0.00     0.193 C 
ATOM      9  C   UNL     1      28.830  16.033  -7.739  1.00  0.00     0.373 C 
ATOM     10  O   UNL     1      29.981  16.021  -7.332  1.00  0.00    -0.243 OA
ATOM     11  O   UNL     1      25.679  14.716  -8.679  1.00  0.00    -0.870 OA
BRANCH   8  12
ATOM     12  O   UNL     1      28.225  13.569  -7.655  1.00  0.00    -0.502 OA
ATOM     13  H   UNL     1      28.498  13.267  -8.549  1.00  0.00     0.293 HD
ENDBRANCH   8  12
ENDBRANCH   1   5
BRANCH   1  14
ATOM     14  O   UNL     1      25.124  16.778  -6.750  1.00  0.00    -0.387 OA
ATOM     15  H   UNL     1      24.785  17.452  -6.101  1.00  0.00     0.211 HD
ENDBRANCH   1  14
TORSDOF 5
ENDMDL
MODEL 7
REMARK VINA RESULT:    -5.587      5.969      7.982
REMARK INTER + INTRA:          -6.944
REMARK INTER:                  -6.789
REMARK INTRA:                  -0.155
REMARK UNBOUND:                -0.214
REMARK SMILES O=C1O[C@H]([C@@H](O)CO)C([O-])=C1O
REMARK SMILES IDX 5 1 7 2 8 3 4 5 9 6 3 7 11 8 2 9 1 10 10 11 12 12 6 14
REMARK H PARENT 8 4 12 13 6 15
ROOT
ATOM      1  C   UNL     1      35.469  14.441  -2.040  1.00  0.00     0.184 C 
ENDROOT
BRANCH   1   2
ATOM      2  C   UNL     1      36.856  13.992  -2.514  1.00  0.00     0.192 C 
BRANCH   2   3
ATOM      3  O   UNL     1      37.507  15.103  -3.152  1.00  0.00    -0.394 OA
ATOM      4  H   UNL     1      38.446  14.822  -3.190  1.00  0.00     0.210 HD
ENDBRANCH   2   3
ENDBRANCH   1   2
BRANCH   1   5
ATOM      5  C   UNL     1      34.314  14.033  -2.985  1.00  0.00     0.227 C 
ATOM      6  C   UNL     1      34.196  14.850  -4.246  1.00  0.00    -0.037 C 
ATOM      7  O   UNL     1      33.048  14.187  -2.319  1.00  0.00    -0.450 OA
ATOM      8  C   UNL     1      32.971  15.375  -4.281  1.00  0.00     0.193 C 
ATOM      9  C   UNL     1      32.225  14.967  -3.081  1.00  0.00     0.373 C 
ATOM     10  O   UNL     1      31.080  15.267  -2.785  1.00  0.00    -0.243 OA
ATOM     11  O   UNL     1      35.194  14.905  -5.013  1.00  0.00    -0.870 OA
BRANCH   8  12
ATOM     12  O   UNL     1      32.519  16.176  -5.295  1.00  0.00    -0.502 OA
ATOM     13  H   UNL     1      33.342  16.269  -5.824  1.00  0.00     0.293 HD
ENDBRANCH   8  12
ENDBRANCH   1   5
BRANCH   1  14
ATOM     14  O   UNL     1      35.269  13.914  -0.708  1.00  0.00    -0.387 OA
ATOM     15  H   UNL     1      34.279  13.826  -0.653  1.00  0.00     0.211 HD
ENDBRANCH   1  14
TORSDOF 5
ENDMDL
MODEL 8
REMARK VINA RESULT:    -5.564      1.712      3.703
REMARK INTER + INTRA:          -6.916
REMARK INTER:                  -6.322
REMARK INTRA:                  -0.595
REMARK UNBOUND:                -0.214
REMARK SMILES O=C1O[C@H]([C@@H](O)CO)C([O-])=C1O
REMARK SMILES IDX 5 1 7 2 8 3 4 5 9 6 3 7 11 8 2 9 1 10 10 11 12 12 6 14
REMARK H PARENT 8 4 12 13 6 15
ROOT
ATOM      1  C   UNL     1      26.342  16.326  -8.954  1.00  0.00     0.184 C 
ENDROOT
BRANCH   1   2
ATOM      2  C   UNL     1      25.131  15.507  -8.490  1.00  0.00     0.192 C 
BRANCH   2   3
ATOM      3  O   UNL     1      24.387  16.284  -7.537  1.00  0.00    -0.394 OA
ATOM      4  H   UNL     1      25.009  16.371  -6.784  1.00  0.00     0.210 HD
ENDBRANCH   2   3
ENDBRANCH   1   2
BRANCH   1   5
ATOM      5  C   UNL     1      27.271  16.787  -7.805  1.00  0.00     0.227 C 
ATOM      6  C   UNL     1      28.744  16.773  -8.123  1.00  0.00    -0.037 C 
ATOM      7  O   UNL     1      27.124  15.918  -6.667  1.00  0.00    -0.450 OA
ATOM      8  C   UNL     1      29.349  15.995  -7.227  1.00  0.00     0.193 C 
ATOM      9  C   UNL     1      28.353  15.449  -6.294  1.00  0.00     0.373 C 
ATOM     10  O   UNL     1      28.553  14.698  -5.353  1.00  0.00    -0.243 OA
ATOM     11  O   UNL     1      29.144  17.447  -9.110  1.00  0.00    -0.870 OA
BRANCH   8  12
ATOM     12  O   UNL     1      30.698  15.758  -7.217  1.00  0.00    -0.502 OA
ATOM     13  H   UNL     1      31.035  16.674  -7.105  1.00  0.00     0.293 HD
ENDBRANCH   8  12
ENDBRANCH   1   5
BRANCH   1  14
ATOM     14  O   UNL     1      27.061  15.534  -9.925  1.00  0.00    -0.387 OA
ATOM     15  H   UNL     1      26.374  15.364 -10.625  1.00  0.00     0.211 HD
ENDBRANCH   1  14
TORSDOF 5
ENDMDL
MODEL 9
REMARK VINA RESULT:    -5.479      1.572      3.551
REMARK INTER + INTRA:          -6.814
REMARK INTER:                  -6.216
REMARK INTRA:                  -0.598
REMARK UNBOUND:                -0.214
REMARK SMILES O=C1O[C@H]([C@@H](O)CO)C([O-])=C1O
REMARK SMILES IDX 5 1 7 2 8 3 4 5 9 6 3 7 11 8 2 9 1 10 10 11 12 12 6 14
REMARK H PARENT 8 4 12 13 6 15
ROOT
ATOM      1  C   UNL     1      26.445  18.055  -8.344  1.00  0.00     0.184 C 
ENDROOT
BRANCH   1   2
ATOM      2  C   UNL     1      27.387  17.824  -9.531  1.00  0.00     0.192 C 
BRANCH   2   3
ATOM      3  O   UNL     1      28.735  17.735  -9.041  1.00  0.00    -0.394 OA
ATOM      4  H   UNL     1      28.987  16.809  -9.243  1.00  0.00     0.210 HD
ENDBRANCH   2   3
ENDBRANCH   1   2
BRANCH   1   5
ATOM      5  C   UNL     1      26.227  16.805  -7.457  1.00  0.00     0.227 C 
ATOM      6  C   UNL     1      26.638  16.958  -6.016  1.00  0.00    -0.037 C 
ATOM      7  O   UNL     1      27.006  15.701  -7.954  1.00  0.00    -0.450 OA
ATOM      8  C   UNL     1      27.532  16.010  -5.741  1.00  0.00     0.193 C 
ATOM      9  C   UNL     1      27.778  15.200  -6.943  1.00  0.00     0.373 C 
ATOM     10  O   UNL     1      28.538  14.251  -7.054  1.00  0.00    -0.243 OA
ATOM     11  O   UNL     1      26.112  17.886  -5.344  1.00  0.00    -0.870 OA
BRANCH   8  12
ATOM     12  O   UNL     1      28.119  15.854  -4.513  1.00  0.00    -0.502 OA
ATOM     13  H   UNL     1      29.040  15.650  -4.785  1.00  0.00     0.293 HD
ENDBRANCH   8  12
ENDBRANCH   1   5
BRANCH   1  14
ATOM     14  O   UNL     1      26.972  19.159  -7.574  1.00  0.00    -0.387 OA
ATOM     15  H   UNL     1      26.222  19.814  -7.585  1.00  0.00     0.211 HD
ENDBRANCH   1  14
TORSDOF 5
ENDMDL
