MODEL 1
REMARK VINA RESULT:    -5.967      0.000      0.000
REMARK INTER + INTRA:          -7.410
REMARK INTER:                  -7.188
REMARK INTRA:                  -0.222
REMARK UNBOUND:                -0.222
REMARK SMILES O=C1O[C@H]([C@@H](O)CO)C([O-])=C1O
REMARK SMILES IDX 5 1 7 2 8 3 4 5 9 6 3 7 11 8 2 9 1 10 10 11 12 12 6 14
REMARK H PARENT 8 4 12 13 6 15
ROOT
ATOM      1  C   UNL     1      29.136  15.590  -7.575  1.00  0.00     0.184 C 
ENDROOT
BRANCH   1   2
ATOM      2  C   UNL     1      29.419  15.602  -6.069  1.00  0.00     0.192 C 
BRANCH   2   3
ATOM      3  O   UNL     1      30.839  15.681  -5.866  1.00  0.00    -0.394 OA
ATOM      4  H   UNL     1      31.199  15.641  -6.778  1.00  0.00     0.210 HD
ENDBRANCH   2   3
ENDBRANCH   1   2
BRANCH   1   5
ATOM      5  C   UNL     1      27.682  15.966  -7.950  1.00  0.00     0.227 C 
ATOM      6  C   UNL     1      27.425  17.439  -8.134  1.00  0.00    -0.037 C 
ATOM      7  O   UNL     1      26.779  15.554  -6.908  1.00  0.00    -0.450 OA
ATOM      8  C   UNL     1      26.452  17.793  -7.296  1.00  0.00     0.193 C 
ATOM      9  C   UNL     1      26.023  16.623  -6.515  1.00  0.00     0.373 C 
ATOM     10  O   UNL     1      25.158  16.584  -5.655  1.00  0.00    -0.243 OA
ATOM     11  O   UNL     1      28.114  18.060  -8.987  1.00  0.00    -0.870 OA
BRANCH   8  12
ATOM     12  O   UNL     1      25.962  19.068  -7.199  1.00  0.00    -0.502 OA
ATOM     13  H   UNL     1      25.642  19.203  -8.118  1.00  0.00     0.293 HD
ENDBRANCH   8  12
ENDBRANCH   1   5
BRANCH   1  14
ATOM     14  O   UNL     1      30.087  16.477  -8.208  1.00  0.00    -0.387 OA
ATOM     15  H   UNL     1      30.206  17.194  -7.528  1.00  0.00     0.211 HD
ENDBRANCH   1  14
TORSDOF 5
ENDMDL
MODEL 2
REMARK VINA RESULT:    -5.683      7.686     10.308
REMARK INTER + INTRA:          -7.068
REMARK INTER:                  -6.438
REMARK INTRA:                  -0.629
REMARK UNBOUND:                -0.222
REMARK SMILES O=C1O[C@H]([C@@H](O)CO)C([O-])=C1O
REMARK SMILES IDX 5 1 7 2 8 3 4 5 9 6 3 7 11 8 2 9 1 10 10 11 12 12 6 14
REMARK H PARENT 8 4 12 13 6 15
ROOT
ATOM      1  C   UNL     1      34.684  14.767  -4.089  1.00  0.00     0.184 C 
ENDROOT
BRANCH   1   2
ATOM      2  C   UNL     1      33.446  14.881  -3.193  1.00  0.00     0.192 C 
BRANCH   2   3
ATOM      3  O   UNL     1      33.073  13.565  -2.752  1.00  0.00    -0.394 OA
ATOM      4  H   UNL     1      33.605  13.442  -1.938  1.00  0.00     0.210 HD
ENDBRANCH   2   3
ENDBRANCH   1   2
BRANCH   1   5
ATOM      5  C   UNL     1      36.025  14.762  -3.316  1.00  0.00     0.227 C 
ATOM      6  C   UNL     1      37.038  13.752  -3.790  1.00  0.00    -0.037 C 
ATOM      7  O   UNL     1      35.800  14.446  -1.931  1.00  0.00    -0.450 OA
ATOM      8  C   UNL     1      37.359  12.977  -2.755  1.00  0.00     0.193 C 
ATOM      9  C   UNL     1      36.598  13.397  -1.570  1.00  0.00     0.373 C 
ATOM     10  O   UNL     1      36.639  12.907  -0.452  1.00  0.00    -0.243 OA
ATOM     11  O   UNL     1      37.398  13.794  -4.998  1.00  0.00    -0.870 OA
BRANCH   8  12
ATOM     12  O   UNL     1      38.259  11.948  -2.830  1.00  0.00    -0.502 OA
ATOM     13  H   UNL     1      37.855  11.414  -3.548  1.00  0.00     0.293 HD
ENDBRANCH   8  12
ENDBRANCH   1   5
BRANCH   1  14
ATOM     14  O   UNL     1      34.537  13.575  -4.892  1.00  0.00    -0.387 OA
ATOM     15  H   UNL     1      34.806  12.851  -4.265  1.00  0.00     0.211 HD
ENDBRANCH   1  14
TORSDOF 5
ENDMDL
MODEL 3
REMARK VINA RESULT:    -5.652      5.635      9.034
REMARK INTER + INTRA:          -7.031
REMARK INTER:                  -6.898
REMARK INTRA:                  -0.133
REMARK UNBOUND:                -0.222
REMARK SMILES O=C1O[C@H]([C@@H](O)CO)C([O-])=C1O
REMARK SMILES IDX 5 1 7 2 8 3 4 5 9 6 3 7 11 8 2 9 1 10 10 11 12 12 6 14
REMARK H PARENT 8 4 12 13 6 15
ROOT
ATOM      1  C   UNL     1      33.302  15.494  -4.167  1.00  0.00     0.184 C 
ENDROOT
BRANCH   1   2
ATOM      2  C   UNL     1      31.776  15.347  -4.185  1.00  0.00     0.192 C 
BRANCH   2   3
ATOM      3  O   UNL     1      31.294  15.698  -5.492  1.00  0.00    -0.394 OA
ATOM      4  H   UNL     1      32.082  15.575  -6.062  1.00  0.00     0.210 HD
ENDBRANCH   2   3
ENDBRANCH   1   2
BRANCH   1   5
ATOM      5  C   UNL     1      34.055  14.218  -3.720  1.00  0.00     0.227 C 
ATOM      6  C   UNL     1      34.986  14.396  -2.549  1.00  0.00    -0.037 C 
ATOM      7  O   UNL     1      34.886  13.731  -4.790  1.00  0.00    -0.450 OA
ATOM      8  C   UNL     1      36.204  14.015  -2.932  1.00  0.00     0.193 C 
ATOM      9  C   UNL     1      36.168  13.585  -4.338  1.00  0.00     0.373 C 
ATOM     10  O   UNL     1      37.101  13.179  -5.012  1.00  0.00    -0.243 OA
ATOM     11  O   UNL     1      34.507  14.843  -1.472  1.00  0.00    -0.870 OA
BRANCH   8  12
ATOM     12  O   UNL     1      37.300  14.044  -2.111  1.00  0.00    -0.502 OA
ATOM     13  H   UNL     1      37.384  15.012  -1.966  1.00  0.00     0.293 HD
ENDBRANCH   8  12
ENDBRANCH   1   5
BRANCH   1  14
ATOM     14  O   UNL     1      33.718  15.915  -5.485  1.00  0.00    -0.387 OA
ATOM     15  H   UNL     1      32.894  16.333  -5.855  1.00  0.00     0.211 HD
ENDBRANCH   1  14
TORSDOF 5
ENDMDL
MODEL 4
REMARK VINA RESULT:    -5.583      1.395      4.199
REMARK INTER + INTRA:          -6.947
REMARK INTER:                  -6.383
REMARK INTRA:                  -0.564
REMARK UNBOUND:                -0.222
REMARK SMILES O=C1O[C@H]([C@@H](O)CO)C([O-])=C1O
REMARK SMILES IDX 5 1 7 2 8 3 4 5 9 6 3 7 11 8 2 9 1 10 10 11 12 12 6 14
REMARK H PARENT 8 4 12 13 6 15
ROOT
ATOM      1  C   UNL     1      25.775  17.611  -7.766  1.00  0.00     0.184 C 
ENDROOT
BRANCH   1   2
ATOM      2  C   UNL     1      26.321  18.883  -7.107  1.00  0.00     0.192 C 
BRANCH   2   3
ATOM      3  O   UNL     1      27.042  19.640  -8.092  1.00  0.00    -0.394 OA
ATOM      4  H   UNL     1      26.504  20.453  -8.189  1.00  0.00     0.210 HD
ENDBRANCH   2   3
ENDBRANCH   1   2
BRANCH   1   5
ATOM      5  C   UNL     1      26.832  16.803  -8.555  1.00  0.00     0.227 C 
ATOM      6  C   UNL     1      26.765  15.308  -8.378  1.00  0.00    -0.037 C 
ATOM      7  O   UNL     1      28.158  17.172  -8.132  1.00  0.00    -0.450 OA
ATOM      8  C   UNL     1      27.950  14.895  -7.930  1.00  0.00     0.193 C 
ATOM      9  C   UNL     1      28.848  16.049  -7.772  1.00  0.00     0.373 C 
ATOM     10  O   UNL     1      30.004  16.039  -7.380  1.00  0.00    -0.243 OA
ATOM     11  O   UNL     1      25.684  14.725  -8.660  1.00  0.00    -0.870 OA
BRANCH   8  12
ATOM     12  O   UNL     1      28.243  13.585  -7.659  1.00  0.00    -0.502 OA
ATOM     13  H   UNL     1      28.988  13.699  -7.030  1.00  0.00     0.293 HD
ENDBRANCH   8  12
ENDBRANCH   1   5
BRANCH   1  14
ATOM     14  O   UNL     1      25.165  16.807  -6.731  1.00  0.00    -0.387 OA
ATOM     15  H   UNL     1      25.384  17.310  -5.901  1.00  0.00     0.211 HD
ENDBRANCH   1  14
TORSDOF 5
ENDMDL
MODEL 5
REMARK VINA RESULT:    -5.578      8.070     10.397
REMARK INTER + INTRA:          -6.941
REMARK INTER:                  -6.348
REMARK INTRA:                  -0.593
REMARK UNBOUND:                -0.222
REMARK SMILES O=C1O[C@H]([C@@H](O)CO)C([O-])=C1O
REMARK SMILES IDX 5 1 7 2 8 3 4 5 9 6 3 7 11 8 2 9 1 10 10 11 12 12 6 14
REMARK H PARENT 8 4 12 13 6 15
ROOT
ATOM      1  C   UNL     1      37.351  13.573  -1.329  1.00  0.00     0.184 C 
ENDROOT
BRANCH   1   2
ATOM      2  C   UNL     1      38.610  12.858  -1.833  1.00  0.00     0.192 C 
BRANCH   2   3
ATOM      3  O   UNL     1      39.563  13.847  -2.257  1.00  0.00    -0.394 OA
ATOM      4  H   UNL     1      39.030  14.668  -2.302  1.00  0.00     0.210 HD
ENDBRANCH   2   3
ENDBRANCH   1   2
BRANCH   1   5
ATOM      5  C   UNL     1      36.682  14.493  -2.379  1.00  0.00     0.227 C 
ATOM      6  C   UNL     1      35.177  14.435  -2.421  1.00  0.00    -0.037 C 
ATOM      7  O   UNL     1      37.109  14.126  -3.704  1.00  0.00    -0.450 OA
ATOM      8  C   UNL     1      34.814  14.099  -3.659  1.00  0.00     0.193 C 
ATOM      9  C   UNL     1      36.012  13.905  -4.489  1.00  0.00     0.373 C 
ATOM     10  O   UNL     1      36.052  13.590  -5.667  1.00  0.00    -0.243 OA
ATOM     11  O   UNL     1      34.544  14.693  -1.363  1.00  0.00    -0.870 OA
BRANCH   8  12
ATOM     12  O   UNL     1      33.510  13.957  -4.053  1.00  0.00    -0.502 OA
ATOM     13  H   UNL     1      33.534  14.435  -4.911  1.00  0.00     0.293 HD
ENDBRANCH   8  12
ENDBRANCH   1   5
BRANCH   1  14
ATOM     14  O   UNL     1      36.432  12.563  -0.855  1.00  0.00    -0.387 OA
ATOM     15  H   UNL     1      35.586  12.794  -1.327  1.00  0.00     0.211 HD
ENDBRANCH   1  14
TORSDOF 5
ENDMDL
MODEL 6
REMARK VINA RESULT:    -5.452      1.577      3.586
REMARK INTER + INTRA:          -6.789
REMARK INTER:                  -6.193
REMARK INTRA:                  -0.596
REMARK UNBOUND:                -0.222
REMARK SMILES O=C1O[C@H]([C@@H](O)CO)C([O-])=C1O
REMARK SMILES IDX 5 1 7 2 8 3 4 5 9 6 3 7 11 8 2 9 1 10 10 11 12 12 6 14
REMARK H PARENT 8 4 12 13 6 15
ROOT
ATOM      1  C   UNL     1      26.348  18.124  -8.311  1.00  0.00     0.184 C 
ENDROOT
BRANCH   1   2
ATOM      2  C   UNL     1      27.276  17.935  -9.516  1.00  0.00     0.192 C 
BRANCH   2   3
ATOM      3  O   UNL     1      28.629  17.824  -9.044  1.00  0.00    -0.394 OA
ATOM      4  H   UNL     1      29.116  17.502  -9.831  1.00  0.00     0.210 HD
ENDBRANCH   2   3
ENDBRANCH   1   2
BRANCH   1   5
ATOM      5  C   UNL     1      26.148  16.847  -7.460  1.00  0.00     0.227 C 
ATOM      6  C   UNL     1      26.567  16.963  -6.017  1.00  0.00    -0.037 C 
ATOM      7  O   UNL     1      26.934  15.766  -7.993  1.00  0.00    -0.450 OA
ATOM      8  C   UNL     1      27.473  16.016  -5.775  1.00  0.00     0.193 C 
ATOM      9  C   UNL     1      27.718  15.244  -7.002  1.00  0.00     0.373 C 
ATOM     10  O   UNL     1      28.487  14.307  -7.145  1.00  0.00    -0.243 OA
ATOM     11  O   UNL     1      26.036  17.866  -5.316  1.00  0.00    -0.870 OA
BRANCH   8  12
ATOM     12  O   UNL     1      28.069  15.831  -4.557  1.00  0.00    -0.502 OA
ATOM     13  H   UNL     1      29.009  15.756  -4.832  1.00  0.00     0.293 HD
ENDBRANCH   8  12
ENDBRANCH   1   5
BRANCH   1  14
ATOM     14  O   UNL     1      26.876  19.208  -7.515  1.00  0.00    -0.387 OA
ATOM     15  H   UNL     1      27.746  19.404  -7.958  1.00  0.00     0.211 HD
ENDBRANCH   1  14
TORSDOF 5
ENDMDL
MODEL 7
REMARK VINA RESULT:    -5.438      1.651      2.688
REMARK INTER + INTRA:          -6.773
REMARK INTER:                  -6.207
REMARK INTRA:                  -0.566
REMARK UNBOUND:                -0.222
REMARK SMILES O=C1O[C@H]([C@@H](O)CO)C([O-])=C1O
REMARK SMILES IDX 5 1 7 2 8 3 4 5 9 6 3 7 11 8 2 9 1 10 10 11 12 12 6 14
REMARK H PARENT 8 4 12 13 6 15
ROOT
ATOM      1  C   UNL     1      28.378  14.956  -7.058  1.00  0.00     0.184 C 
ENDROOT
BRANCH   1   2
ATOM      2  C   UNL     1      29.577  15.552  -6.312  1.00  0.00     0.192 C 
BRANCH   2   3
ATOM      3  O   UNL     1      30.561  15.964  -7.274  1.00  0.00    -0.394 OA
ATOM      4  H   UNL     1      30.330  16.901  -7.445  1.00  0.00     0.210 HD
ENDBRANCH   2   3
ENDBRANCH   1   2
BRANCH   1   5
ATOM      5  C   UNL     1      27.223  15.956  -7.304  1.00  0.00     0.227 C 
ATOM      6  C   UNL     1      26.399  15.698  -8.539  1.00  0.00    -0.037 C 
ATOM      7  O   UNL     1      27.746  17.287  -7.473  1.00  0.00    -0.450 OA
ATOM      8  C   UNL     1      26.441  16.793  -9.296  1.00  0.00     0.193 C 
ATOM      9  C   UNL     1      27.278  17.812  -8.646  1.00  0.00     0.373 C 
ATOM     10  O   UNL     1      27.539  18.930  -9.059  1.00  0.00    -0.243 OA
ATOM     11  O   UNL     1      25.840  14.575  -8.654  1.00  0.00    -0.870 OA
BRANCH   8  12
ATOM     12  O   UNL     1      25.797  16.907 -10.499  1.00  0.00    -0.502 OA
ATOM     13  H   UNL     1      26.002  17.842 -10.719  1.00  0.00     0.293 HD
ENDBRANCH   8  12
ENDBRANCH   1   5
BRANCH   1  14
ATOM     14  O   UNL     1      28.865  14.401  -8.301  1.00  0.00    -0.387 OA
ATOM     15  H   UNL     1      29.586  13.784  -8.000  1.00  0.00     0.211 HD
ENDBRANCH   1  14
TORSDOF 5
ENDMDL
MODEL 8
REMARK VINA RESULT:    -5.432      2.131      3.397
REMARK INTER + INTRA:          -6.765
REMARK INTER:                  -6.136
REMARK INTRA:                  -0.629
REMARK UNBOUND:                -0.222
REMARK SMILES O=C1O[C@H]([C@@H](O)CO)C([O-])=C1O
REMARK SMILES IDX 5 1 7 2 8 3 4 5 9 6 3 7 11 8 2 9 1 10 10 11 12 12 6 14
REMARK H PARENT 8 4 12 13 6 15
ROOT
ATOM      1  C   UNL     1      26.509  15.699  -8.157  1.00  0.00     0.184 C 
ENDROOT
BRANCH   1   2
ATOM      2  C   UNL     1      26.062  16.361  -6.849  1.00  0.00     0.192 C 
BRANCH   2   3
ATOM      3  O   UNL     1      24.632  16.506  -6.870  1.00  0.00    -0.394 OA
ATOM      4  H   UNL     1      24.376  16.079  -7.715  1.00  0.00     0.210 HD
ENDBRANCH   2   3
ENDBRANCH   1   2
BRANCH   1   5
ATOM      5  C   UNL     1      26.588  16.667  -9.362  1.00  0.00     0.227 C 
ATOM      6  C   UNL     1      27.470  17.872  -9.163  1.00  0.00    -0.037 C 
ATOM      7  O   UNL     1      25.284  17.200  -9.657  1.00  0.00    -0.450 OA
ATOM      8  C   UNL     1      26.727  18.961  -9.361  1.00  0.00     0.193 C 
ATOM      9  C   UNL     1      25.347  18.565  -9.680  1.00  0.00     0.373 C 
ATOM     10  O   UNL     1      24.402  19.301  -9.914  1.00  0.00    -0.243 OA
ATOM     11  O   UNL     1      28.679  17.680  -8.864  1.00  0.00    -0.870 OA
BRANCH   8  12
ATOM     12  O   UNL     1      27.212  20.237  -9.262  1.00  0.00    -0.502 OA
ATOM     13  H   UNL     1      27.173  20.513 -10.204  1.00  0.00     0.293 HD
ENDBRANCH   8  12
ENDBRANCH   1   5
BRANCH   1  14
ATOM     14  O   UNL     1      27.782  15.059  -7.913  1.00  0.00    -0.387 OA
ATOM     15  H   UNL     1      27.891  14.473  -8.710  1.00  0.00     0.211 HD
ENDBRANCH   1  14
TORSDOF 5
ENDMDL
