MODEL 1
REMARK VINA RESULT:    -6.988      0.000      0.000
REMARK INTER + INTRA:          -9.061
REMARK INTER:                  -8.826
REMARK INTRA:                  -0.236
REMARK UNBOUND:                -0.236
REMARK SMILES O=C([O-])[C@H](O)Cc1ccc(O)c(O)c1
REMARK SMILES IDX 6 1 7 2 8 3 9 4 10 5 14 6 12 7 11 8 13 10 4 12 2 13 1 14
REMARK SMILES IDX 3 15 5 16
REMARK H PARENT 11 9 13 11 5 17
ROOT
ATOM      1  C   UNL     1      35.712  14.638  -2.018  1.00  0.00     0.073 C 
ENDROOT
BRANCH   1   2
ATOM      2  C   UNL     1      34.334  14.827  -2.621  1.00  0.00    -0.041 A 
ATOM      3  C   UNL     1      33.179  14.462  -1.908  1.00  0.00     0.008 A 
ATOM      4  C   UNL     1      31.911  14.645  -2.467  1.00  0.00     0.050 A 
ATOM      5  C   UNL     1      31.802  15.203  -3.732  1.00  0.00     0.157 A 
ATOM      6  C   UNL     1      34.202  15.390  -3.899  1.00  0.00     0.054 A 
ATOM      7  C   UNL     1      32.939  15.579  -4.442  1.00  0.00     0.157 A 
BRANCH   5   8
ATOM      8  O   UNL     1      30.566  15.392  -4.284  1.00  0.00    -0.504 OA
ATOM      9  H   UNL     1      29.956  15.203  -3.543  1.00  0.00     0.293 HD
ENDBRANCH   5   8
BRANCH   7  10
ATOM     10  O   UNL     1      32.773  16.147  -5.678  1.00  0.00    -0.504 OA
ATOM     11  H   UNL     1      33.654  16.144  -6.096  1.00  0.00     0.293 HD
ENDBRANCH   7  10
ENDBRANCH   1   2
BRANCH   1  12
ATOM     12  C   UNL     1      36.837  14.788  -3.041  1.00  0.00     0.164 C 
BRANCH  12  13
ATOM     13  C   UNL     1      37.405  13.399  -3.468  1.00  0.00     0.070 C 
ATOM     14  O   UNL     1      37.269  12.509  -2.568  1.00  0.00    -0.547 OA
ATOM     15  O   UNL     1      37.925  13.318  -4.613  1.00  0.00    -0.547 OA
ENDBRANCH  12  13
BRANCH  12  16
ATOM     16  O   UNL     1      37.913  15.571  -2.447  1.00  0.00    -0.387 OA
ATOM     17  H   UNL     1      38.706  15.200  -2.912  1.00  0.00     0.211 HD
ENDBRANCH  12  16
ENDBRANCH   1  12
TORSDOF 6
ENDMDL
MODEL 2
REMARK VINA RESULT:    -6.910      3.079      7.125
REMARK INTER + INTRA:          -8.964
REMARK INTER:                  -8.770
REMARK INTRA:                  -0.194
REMARK UNBOUND:                -0.236
REMARK SMILES O=C([O-])[C@H](O)Cc1ccc(O)c(O)c1
REMARK SMILES IDX 6 1 7 2 8 3 9 4 10 5 14 6 12 7 11 8 13 10 4 12 2 13 1 14
REMARK SMILES IDX 3 15 5 16
REMARK H PARENT 11 9 13 11 5 17
ROOT
ATOM      1  C   UNL     1      28.754  15.210  -4.773  1.00  0.00     0.073 C 
ENDROOT
BRANCH   1   2
ATOM      2  C   UNL     1      30.194  15.275  -4.305  1.00  0.00    -0.041 A 
ATOM      3  C   UNL     1      30.539  14.929  -2.987  1.00  0.00     0.008 A 
ATOM      4  C   UNL     1      31.870  14.985  -2.563  1.00  0.00     0.050 A 
ATOM      5  C   UNL     1      32.851  15.375  -3.461  1.00  0.00     0.157 A 
ATOM      6  C   UNL     1      31.202  15.666  -5.198  1.00  0.00     0.054 A 
ATOM      7  C   UNL     1      32.523  15.708  -4.772  1.00  0.00     0.157 A 
BRANCH   5   8
ATOM      8  O   UNL     1      34.157  15.426  -3.057  1.00  0.00    -0.504 OA
ATOM      9  H   UNL     1      34.282  14.576  -2.590  1.00  0.00     0.293 HD
ENDBRANCH   5   8
BRANCH   7  10
ATOM     10  O   UNL     1      33.534  16.064  -5.624  1.00  0.00    -0.504 OA
ATOM     11  H   UNL     1      33.556  15.380  -6.319  1.00  0.00     0.293 HD
ENDBRANCH   7  10
ENDBRANCH   1   2
BRANCH   1  12
ATOM     12  C   UNL     1      28.586  15.594  -6.243  1.00  0.00     0.164 C 
BRANCH  12  13
ATOM     13  C   UNL     1      27.293  16.438  -6.465  1.00  0.00     0.070 C 
ATOM     14  O   UNL     1      27.380  17.230  -7.457  1.00  0.00    -0.547 OA
ATOM     15  O   UNL     1      26.342  16.256  -5.658  1.00  0.00    -0.547 OA
ENDBRANCH  12  13
BRANCH  12  16
ATOM     16  O   UNL     1      28.495  14.378  -7.041  1.00  0.00    -0.387 OA
ATOM     17  H   UNL     1      28.124  13.738  -6.381  1.00  0.00     0.211 HD
ENDBRANCH  12  16
ENDBRANCH   1  12
TORSDOF 6
ENDMDL
MODEL 3
REMARK VINA RESULT:    -6.786      1.140      5.456
REMARK INTER + INTRA:          -8.806
REMARK INTER:                  -8.859
REMARK INTRA:                   0.052
REMARK UNBOUND:                -0.236
REMARK SMILES O=C([O-])[C@H](O)Cc1ccc(O)c(O)c1
REMARK SMILES IDX 6 1 7 2 8 3 9 4 10 5 14 6 12 7 11 8 13 10 4 12 2 13 1 14
REMARK SMILES IDX 3 15 5 16
REMARK H PARENT 11 9 13 11 5 17
ROOT
ATOM      1  C   UNL     1      32.669  14.330  -3.739  1.00  0.00     0.073 C 
ENDROOT
BRANCH   1   2
ATOM      2  C   UNL     1      34.165  14.406  -3.509  1.00  0.00    -0.041 A 
ATOM      3  C   UNL     1      34.683  14.771  -2.255  1.00  0.00     0.008 A 
ATOM      4  C   UNL     1      36.064  14.833  -2.047  1.00  0.00     0.050 A 
ATOM      5  C   UNL     1      36.921  14.517  -3.090  1.00  0.00     0.157 A 
ATOM      6  C   UNL     1      35.049  14.089  -4.551  1.00  0.00     0.054 A 
ATOM      7  C   UNL     1      36.419  14.141  -4.332  1.00  0.00     0.157 A 
BRANCH   5   8
ATOM      8  O   UNL     1      38.273  14.568  -2.893  1.00  0.00    -0.504 OA
ATOM      9  H   UNL     1      38.379  15.276  -2.227  1.00  0.00     0.293 HD
ENDBRANCH   5   8
BRANCH   7  10
ATOM     10  O   UNL     1      37.310  13.817  -5.321  1.00  0.00    -0.504 OA
ATOM     11  H   UNL     1      36.805  13.832  -6.155  1.00  0.00     0.293 HD
ENDBRANCH   7  10
ENDBRANCH   1   2
BRANCH   1  12
ATOM     12  C   UNL     1      32.079  15.638  -4.267  1.00  0.00     0.164 C 
BRANCH  12  13
ATOM     13  C   UNL     1      30.583  15.462  -4.674  1.00  0.00     0.070 C 
ATOM     14  O   UNL     1      30.393  15.571  -5.927  1.00  0.00    -0.547 OA
ATOM     15  O   UNL     1      29.756  15.248  -3.747  1.00  0.00    -0.547 OA
ENDBRANCH  12  13
BRANCH  12  16
ATOM     16  O   UNL     1      32.837  16.058  -5.438  1.00  0.00    -0.387 OA
ATOM     17  H   UNL     1      33.151  15.187  -5.792  1.00  0.00     0.211 HD
ENDBRANCH  12  16
ENDBRANCH   1  12
TORSDOF 6
ENDMDL
MODEL 4
REMARK VINA RESULT:    -6.641      3.407      4.986
REMARK INTER + INTRA:          -8.623
REMARK INTER:                  -8.494
REMARK INTRA:                  -0.129
REMARK UNBOUND:                -0.236
REMARK SMILES O=C([O-])[C@H](O)Cc1ccc(O)c(O)c1
REMARK SMILES IDX 6 1 7 2 8 3 9 4 10 5 14 6 12 7 11 8 13 10 4 12 2 13 1 14
REMARK SMILES IDX 3 15 5 16
REMARK H PARENT 11 9 13 11 5 17
ROOT
ATOM      1  C   UNL     1      30.691  15.191  -3.583  1.00  0.00     0.073 C 
ENDROOT
BRANCH   1   2
ATOM      2  C   UNL     1      29.697  15.452  -4.697  1.00  0.00    -0.041 A 
ATOM      3  C   UNL     1      28.324  15.579  -4.421  1.00  0.00     0.008 A 
ATOM      4  C   UNL     1      27.412  15.825  -5.452  1.00  0.00     0.050 A 
ATOM      5  C   UNL     1      27.878  15.957  -6.751  1.00  0.00     0.157 A 
ATOM      6  C   UNL     1      30.147  15.589  -6.017  1.00  0.00     0.054 A 
ATOM      7  C   UNL     1      29.236  15.846  -7.033  1.00  0.00     0.157 A 
BRANCH   5   8
ATOM      8  O   UNL     1      26.994  16.206  -7.764  1.00  0.00    -0.504 OA
ATOM      9  H   UNL     1      27.414  16.940  -8.255  1.00  0.00     0.293 HD
ENDBRANCH   5   8
BRANCH   7  10
ATOM     10  O   UNL     1      29.645  16.008  -8.331  1.00  0.00    -0.504 OA
ATOM     11  H   UNL     1      29.864  15.116  -8.658  1.00  0.00     0.293 HD
ENDBRANCH   7  10
ENDBRANCH   1   2
BRANCH   1  12
ATOM     12  C   UNL     1      32.131  15.077  -4.083  1.00  0.00     0.164 C 
BRANCH  12  13
ATOM     13  C   UNL     1      32.975  14.132  -3.172  1.00  0.00     0.070 C 
ATOM     14  O   UNL     1      34.062  13.758  -3.715  1.00  0.00    -0.547 OA
ATOM     15  O   UNL     1      32.497  13.847  -2.040  1.00  0.00    -0.547 OA
ENDBRANCH  12  13
BRANCH  12  16
ATOM     16  O   UNL     1      32.739  16.401  -4.076  1.00  0.00    -0.387 OA
ATOM     17  H   UNL     1      33.070  16.460  -3.144  1.00  0.00     0.211 HD
ENDBRANCH  12  16
ENDBRANCH   1  12
TORSDOF 6
ENDMDL
MODEL 5
REMARK VINA RESULT:    -6.605      4.986      9.070
REMARK INTER + INTRA:          -8.578
REMARK INTER:                  -8.421
REMARK INTRA:                  -0.156
REMARK UNBOUND:                -0.236
REMARK SMILES O=C([O-])[C@H](O)Cc1ccc(O)c(O)c1
REMARK SMILES IDX 6 1 7 2 8 3 9 4 10 5 14 6 12 7 11 8 13 10 4 12 2 13 1 14
REMARK SMILES IDX 3 15 5 16
REMARK H PARENT 11 9 13 11 5 17
ROOT
ATOM      1  C   UNL     1      26.354  15.931  -6.047  1.00  0.00     0.073 C 
ENDROOT
BRANCH   1   2
ATOM      2  C   UNL     1      27.852  15.810  -5.848  1.00  0.00    -0.041 A 
ATOM      3  C   UNL     1      28.735  15.935  -6.935  1.00  0.00     0.008 A 
ATOM      4  C   UNL     1      30.115  15.829  -6.744  1.00  0.00     0.050 A 
ATOM      5  C   UNL     1      30.608  15.611  -5.467  1.00  0.00     0.157 A 
ATOM      6  C   UNL     1      28.371  15.590  -4.565  1.00  0.00     0.054 A 
ATOM      7  C   UNL     1      29.744  15.498  -4.382  1.00  0.00     0.157 A 
BRANCH   5   8
ATOM      8  O   UNL     1      31.958  15.513  -5.270  1.00  0.00    -0.504 OA
ATOM      9  H   UNL     1      32.189  14.666  -5.701  1.00  0.00     0.293 HD
ENDBRANCH   5   8
BRANCH   7  10
ATOM     10  O   UNL     1      30.285  15.306  -3.138  1.00  0.00    -0.504 OA
ATOM     11  H   UNL     1      31.015  15.948  -3.060  1.00  0.00     0.293 HD
ENDBRANCH   7  10
ENDBRANCH   1   2
BRANCH   1  12
ATOM     12  C   UNL     1      25.980  16.799  -7.249  1.00  0.00     0.164 C 
BRANCH  12  13
ATOM     13  C   UNL     1      26.289  18.304  -6.978  1.00  0.00     0.070 C 
ATOM     14  O   UNL     1      26.933  18.858  -7.926  1.00  0.00    -0.547 OA
ATOM     15  O   UNL     1      25.889  18.786  -5.884  1.00  0.00    -0.547 OA
ENDBRANCH  12  13
BRANCH  12  16
ATOM     16  O   UNL     1      24.554  16.653  -7.511  1.00  0.00    -0.387 OA
ATOM     17  H   UNL     1      24.207  16.457  -6.603  1.00  0.00     0.211 HD
ENDBRANCH  12  16
ENDBRANCH   1  12
TORSDOF 6
ENDMDL
MODEL 6
REMARK VINA RESULT:    -6.577      5.052      8.626
REMARK INTER + INTRA:          -8.543
REMARK INTER:                  -8.297
REMARK INTRA:                  -0.246
REMARK UNBOUND:                -0.236
REMARK SMILES O=C([O-])[C@H](O)Cc1ccc(O)c(O)c1
REMARK SMILES IDX 6 1 7 2 8 3 9 4 10 5 14 6 12 7 11 8 13 10 4 12 2 13 1 14
REMARK SMILES IDX 3 15 5 16
REMARK H PARENT 11 9 13 11 5 17
ROOT
ATOM      1  C   UNL     1      27.796  15.717  -8.119  1.00  0.00     0.073 C 
ENDROOT
BRANCH   1   2
ATOM      2  C   UNL     1      28.496  15.603  -6.780  1.00  0.00    -0.041 A 
ATOM      3  C   UNL     1      27.770  15.323  -5.609  1.00  0.00     0.008 A 
ATOM      4  C   UNL     1      28.422  15.212  -4.378  1.00  0.00     0.050 A 
ATOM      5  C   UNL     1      29.799  15.369  -4.323  1.00  0.00     0.157 A 
ATOM      6  C   UNL     1      29.888  15.757  -6.703  1.00  0.00     0.054 A 
ATOM      7  C   UNL     1      30.529  15.633  -5.478  1.00  0.00     0.157 A 
BRANCH   5   8
ATOM      8  O   UNL     1      30.446  15.255  -3.124  1.00  0.00    -0.504 OA
ATOM      9  H   UNL     1      30.517  16.180  -2.817  1.00  0.00     0.293 HD
ENDBRANCH   5   8
BRANCH   7  10
ATOM     10  O   UNL     1      31.890  15.756  -5.372  1.00  0.00    -0.504 OA
ATOM     11  H   UNL     1      32.248  15.565  -6.258  1.00  0.00     0.293 HD
ENDBRANCH   7  10
ENDBRANCH   1   2
BRANCH   1  12
ATOM     12  C   UNL     1      28.105  17.027  -8.844  1.00  0.00     0.164 C 
BRANCH  12  13
ATOM     13  C   UNL     1      27.001  18.097  -8.577  1.00  0.00     0.070 C 
ATOM     14  O   UNL     1      27.341  19.266  -8.945  1.00  0.00    -0.547 OA
ATOM     15  O   UNL     1      25.934  17.699  -8.034  1.00  0.00    -0.547 OA
ENDBRANCH  12  13
BRANCH  12  16
ATOM     16  O   UNL     1      28.171  16.770 -10.277  1.00  0.00    -0.387 OA
ATOM     17  H   UNL     1      27.894  15.819 -10.318  1.00  0.00     0.211 HD
ENDBRANCH  12  16
ENDBRANCH   1  12
TORSDOF 6
ENDMDL
MODEL 7
REMARK VINA RESULT:    -6.502      1.501      1.878
REMARK INTER + INTRA:          -8.448
REMARK INTER:                  -8.294
REMARK INTRA:                  -0.155
REMARK UNBOUND:                -0.236
REMARK SMILES O=C([O-])[C@H](O)Cc1ccc(O)c(O)c1
REMARK SMILES IDX 6 1 7 2 8 3 9 4 10 5 14 6 12 7 11 8 13 10 4 12 2 13 1 14
REMARK SMILES IDX 3 15 5 16
REMARK H PARENT 11 9 13 11 5 17
ROOT
ATOM      1  C   UNL     1      36.801  14.700  -2.318  1.00  0.00     0.073 C 
ENDROOT
BRANCH   1   2
ATOM      2  C   UNL     1      35.325  14.844  -2.632  1.00  0.00    -0.041 A 
ATOM      3  C   UNL     1      34.350  14.530  -1.670  1.00  0.00     0.008 A 
ATOM      4  C   UNL     1      32.991  14.670  -1.964  1.00  0.00     0.050 A 
ATOM      5  C   UNL     1      32.612  15.136  -3.214  1.00  0.00     0.157 A 
ATOM      6  C   UNL     1      34.921  15.314  -3.890  1.00  0.00     0.054 A 
ATOM      7  C   UNL     1      33.570  15.462  -4.170  1.00  0.00     0.157 A 
BRANCH   5   8
ATOM      8  O   UNL     1      31.285  15.283  -3.508  1.00  0.00    -0.504 OA
ATOM      9  H   UNL     1      30.955  15.850  -2.783  1.00  0.00     0.293 HD
ENDBRANCH   5   8
BRANCH   7  10
ATOM     10  O   UNL     1      33.142  15.940  -5.380  1.00  0.00    -0.504 OA
ATOM     11  H   UNL     1      32.175  16.045  -5.302  1.00  0.00     0.293 HD
ENDBRANCH   7  10
ENDBRANCH   1   2
BRANCH   1  12
ATOM     12  C   UNL     1      37.129  13.407  -1.571  1.00  0.00     0.164 C 
BRANCH  12  13
ATOM     13  C   UNL     1      38.648  13.322  -1.226  1.00  0.00     0.070 C 
ATOM     14  O   UNL     1      38.870  13.230   0.024  1.00  0.00    -0.547 OA
ATOM     15  O   UNL     1      39.460  13.361  -2.190  1.00  0.00    -0.547 OA
ENDBRANCH  12  13
BRANCH  12  16
ATOM     16  O   UNL     1      36.775  12.273  -2.414  1.00  0.00    -0.387 OA
ATOM     17  H   UNL     1      36.064  11.842  -1.875  1.00  0.00     0.211 HD
ENDBRANCH  12  16
ENDBRANCH   1  12
TORSDOF 6
ENDMDL
MODEL 8
REMARK VINA RESULT:    -6.492      5.588      9.354
REMARK INTER + INTRA:          -8.435
REMARK INTER:                  -8.304
REMARK INTRA:                  -0.131
REMARK UNBOUND:                -0.236
REMARK SMILES O=C([O-])[C@H](O)Cc1ccc(O)c(O)c1
REMARK SMILES IDX 6 1 7 2 8 3 9 4 10 5 14 6 12 7 11 8 13 10 4 12 2 13 1 14
REMARK SMILES IDX 3 15 5 16
REMARK H PARENT 11 9 13 11 5 17
ROOT
ATOM      1  C   UNL     1      25.916  16.486  -6.986  1.00  0.00     0.073 C 
ENDROOT
BRANCH   1   2
ATOM      2  C   UNL     1      27.274  16.148  -6.402  1.00  0.00    -0.041 A 
ATOM      3  C   UNL     1      27.410  15.811  -5.044  1.00  0.00     0.008 A 
ATOM      4  C   UNL     1      28.663  15.494  -4.513  1.00  0.00     0.050 A 
ATOM      5  C   UNL     1      29.773  15.502  -5.343  1.00  0.00     0.157 A 
ATOM      6  C   UNL     1      28.409  16.150  -7.225  1.00  0.00     0.054 A 
ATOM      7  C   UNL     1      29.648  15.821  -6.692  1.00  0.00     0.157 A 
BRANCH   5   8
ATOM      8  O   UNL     1      31.001  15.186  -4.834  1.00  0.00    -0.504 OA
ATOM      9  H   UNL     1      30.962  14.214  -4.735  1.00  0.00     0.293 HD
ENDBRANCH   5   8
BRANCH   7  10
ATOM     10  O   UNL     1      30.773  15.791  -7.473  1.00  0.00    -0.504 OA
ATOM     11  H   UNL     1      31.178  16.675  -7.396  1.00  0.00     0.293 HD
ENDBRANCH   7  10
ENDBRANCH   1   2
BRANCH   1  12
ATOM     12  C   UNL     1      25.989  17.537  -8.094  1.00  0.00     0.164 C 
BRANCH  12  13
ATOM     13  C   UNL     1      26.361  18.940  -7.522  1.00  0.00     0.070 C 
ATOM     14  O   UNL     1      25.859  19.157  -6.373  1.00  0.00    -0.547 OA
ATOM     15  O   UNL     1      27.084  19.681  -8.241  1.00  0.00    -0.547 OA
ENDBRANCH  12  13
BRANCH  12  16
ATOM     16  O   UNL     1      24.688  17.626  -8.746  1.00  0.00    -0.387 OA
ATOM     17  H   UNL     1      24.157  16.982  -8.212  1.00  0.00     0.211 HD
ENDBRANCH  12  16
ENDBRANCH   1  12
TORSDOF 6
ENDMDL
MODEL 9
REMARK VINA RESULT:    -6.345      4.668      7.083
REMARK INTER + INTRA:          -8.250
REMARK INTER:                  -8.351
REMARK INTRA:                   0.101
REMARK UNBOUND:                -0.236
REMARK SMILES O=C([O-])[C@H](O)Cc1ccc(O)c(O)c1
REMARK SMILES IDX 6 1 7 2 8 3 9 4 10 5 14 6 12 7 11 8 13 10 4 12 2 13 1 14
REMARK SMILES IDX 3 15 5 16
REMARK H PARENT 11 9 13 11 5 17
ROOT
ATOM      1  C   UNL     1      29.048  15.815  -4.534  1.00  0.00     0.073 C 
ENDROOT
BRANCH   1   2
ATOM      2  C   UNL     1      28.104  15.620  -5.704  1.00  0.00    -0.041 A 
ATOM      3  C   UNL     1      28.454  14.785  -6.780  1.00  0.00     0.008 A 
ATOM      4  C   UNL     1      27.577  14.604  -7.853  1.00  0.00     0.050 A 
ATOM      5  C   UNL     1      26.349  15.247  -7.840  1.00  0.00     0.157 A 
ATOM      6  C   UNL     1      26.857  16.260  -5.710  1.00  0.00     0.054 A 
ATOM      7  C   UNL     1      25.986  16.064  -6.774  1.00  0.00     0.157 A 
BRANCH   5   8
ATOM      8  O   UNL     1      25.481  15.069  -8.882  1.00  0.00    -0.504 OA
ATOM      9  H   UNL     1      24.664  14.758  -8.445  1.00  0.00     0.293 HD
ENDBRANCH   5   8
BRANCH   7  10
ATOM     10  O   UNL     1      24.751  16.657  -6.801  1.00  0.00    -0.504 OA
ATOM     11  H   UNL     1      24.141  15.992  -7.170  1.00  0.00     0.293 HD
ENDBRANCH   7  10
ENDBRANCH   1   2
BRANCH   1  12
ATOM     12  C   UNL     1      30.423  15.190  -4.766  1.00  0.00     0.164 C 
BRANCH  12  13
ATOM     13  C   UNL     1      31.296  15.243  -3.474  1.00  0.00     0.070 C 
ATOM     14  O   UNL     1      32.486  15.636  -3.693  1.00  0.00    -0.547 OA
ATOM     15  O   UNL     1      30.746  14.893  -2.394  1.00  0.00    -0.547 OA
ENDBRANCH  12  13
BRANCH  12  16
ATOM     16  O   UNL     1      31.105  15.927  -5.823  1.00  0.00    -0.387 OA
ATOM     17  H   UNL     1      32.055  15.786  -5.578  1.00  0.00     0.211 HD
ENDBRANCH  12  16
ENDBRANCH   1  12
TORSDOF 6
ENDMDL
