MODEL 1
REMARK VINA RESULT:    -6.988      0.000      0.000
REMARK INTER + INTRA:          -9.061
REMARK INTER:                  -8.826
REMARK INTRA:                  -0.235
REMARK UNBOUND:                -0.235
REMARK SMILES O=C([O-])[C@H](O)Cc1ccc(O)c(O)c1
REMARK SMILES IDX 6 1 7 2 8 3 9 4 10 5 14 6 12 7 11 8 13 10 4 12 2 13 1 14
REMARK SMILES IDX 3 15 5 16
REMARK H PARENT 11 9 13 11 5 17
ROOT
ATOM      1  C   UNL     1      35.712  14.610  -2.020  1.00  0.00     0.073 C 
ENDROOT
BRANCH   1   2
ATOM      2  C   UNL     1      34.332  14.800  -2.620  1.00  0.00    -0.041 A 
ATOM      3  C   UNL     1      33.179  14.430  -1.905  1.00  0.00     0.008 A 
ATOM      4  C   UNL     1      31.910  14.614  -2.461  1.00  0.00     0.050 A 
ATOM      5  C   UNL     1      31.798  15.178  -3.722  1.00  0.00     0.157 A 
ATOM      6  C   UNL     1      34.197  15.370  -3.894  1.00  0.00     0.054 A 
ATOM      7  C   UNL     1      32.932  15.561  -4.433  1.00  0.00     0.157 A 
BRANCH   5   8
ATOM      8  O   UNL     1      30.559  15.369  -4.270  1.00  0.00    -0.504 OA
ATOM      9  H   UNL     1      30.404  16.327  -4.150  1.00  0.00     0.293 HD
ENDBRANCH   5   8
BRANCH   7  10
ATOM     10  O   UNL     1      32.762  16.134  -5.665  1.00  0.00    -0.504 OA
ATOM     11  H   UNL     1      31.811  16.060  -5.869  1.00  0.00     0.293 HD
ENDBRANCH   7  10
ENDBRANCH   1   2
BRANCH   1  12
ATOM     12  C   UNL     1      36.834  14.758  -3.048  1.00  0.00     0.164 C 
BRANCH  12  13
ATOM     13  C   UNL     1      37.434  13.370  -3.434  1.00  0.00     0.070 C 
ATOM     14  O   UNL     1      37.284  12.493  -2.525  1.00  0.00    -0.547 OA
ATOM     15  O   UNL     1      37.991  13.279  -4.562  1.00  0.00    -0.547 OA
ENDBRANCH  12  13
BRANCH  12  16
ATOM     16  O   UNL     1      37.891  15.583  -2.477  1.00  0.00    -0.387 OA
ATOM     17  H   UNL     1      37.411  16.436  -2.323  1.00  0.00     0.211 HD
ENDBRANCH  12  16
ENDBRANCH   1  12
TORSDOF 6
ENDMDL
MODEL 2
REMARK VINA RESULT:    -6.917      3.095      7.143
REMARK INTER + INTRA:          -8.972
REMARK INTER:                  -8.781
REMARK INTRA:                  -0.190
REMARK UNBOUND:                -0.235
REMARK SMILES O=C([O-])[C@H](O)Cc1ccc(O)c(O)c1
REMARK SMILES IDX 6 1 7 2 8 3 9 4 10 5 14 6 12 7 11 8 13 10 4 12 2 13 1 14
REMARK SMILES IDX 3 15 5 16
REMARK H PARENT 11 9 13 11 5 17
ROOT
ATOM      1  C   UNL     1      28.738  15.220  -4.790  1.00  0.00     0.073 C 
ENDROOT
BRANCH   1   2
ATOM      2  C   UNL     1      30.173  15.270  -4.304  1.00  0.00    -0.041 A 
ATOM      3  C   UNL     1      30.501  14.899  -2.989  1.00  0.00     0.008 A 
ATOM      4  C   UNL     1      31.827  14.941  -2.548  1.00  0.00     0.050 A 
ATOM      5  C   UNL     1      32.821  15.340  -3.428  1.00  0.00     0.157 A 
ATOM      6  C   UNL     1      31.193  15.671  -5.179  1.00  0.00     0.054 A 
ATOM      7  C   UNL     1      32.509  15.697  -4.737  1.00  0.00     0.157 A 
BRANCH   5   8
ATOM      8  O   UNL     1      34.121  15.377  -3.008  1.00  0.00    -0.504 OA
ATOM      9  H   UNL     1      34.419  16.270  -3.273  1.00  0.00     0.293 HD
ENDBRANCH   5   8
BRANCH   7  10
ATOM     10  O   UNL     1      33.532  16.062  -5.571  1.00  0.00    -0.504 OA
ATOM     11  H   UNL     1      34.273  15.461  -5.368  1.00  0.00     0.293 HD
ENDBRANCH   7  10
ENDBRANCH   1   2
BRANCH   1  12
ATOM     12  C   UNL     1      28.594  15.594  -6.266  1.00  0.00     0.164 C 
BRANCH  12  13
ATOM     13  C   UNL     1      27.298  16.426  -6.516  1.00  0.00     0.070 C 
ATOM     14  O   UNL     1      27.435  17.296  -7.434  1.00  0.00    -0.547 OA
ATOM     15  O   UNL     1      26.296  16.160  -5.798  1.00  0.00    -0.547 OA
ENDBRANCH  12  13
BRANCH  12  16
ATOM     16  O   UNL     1      28.528  14.373  -7.058  1.00  0.00    -0.387 OA
ATOM     17  H   UNL     1      28.027  13.772  -6.449  1.00  0.00     0.211 HD
ENDBRANCH  12  16
ENDBRANCH   1  12
TORSDOF 6
ENDMDL
MODEL 3
REMARK VINA RESULT:    -6.760      1.166      5.457
REMARK INTER + INTRA:          -8.773
REMARK INTER:                  -8.883
REMARK INTRA:                   0.110
REMARK UNBOUND:                -0.235
REMARK SMILES O=C([O-])[C@H](O)Cc1ccc(O)c(O)c1
REMARK SMILES IDX 6 1 7 2 8 3 9 4 10 5 14 6 12 7 11 8 13 10 4 12 2 13 1 14
REMARK SMILES IDX 3 15 5 16
REMARK H PARENT 11 9 13 11 5 17
ROOT
ATOM      1  C   UNL     1      32.671  14.376  -3.636  1.00  0.00     0.073 C 
ENDROOT
BRANCH   1   2
ATOM      2  C   UNL     1      34.178  14.421  -3.478  1.00  0.00    -0.041 A 
ATOM      3  C   UNL     1      34.763  14.788  -2.253  1.00  0.00     0.008 A 
ATOM      4  C   UNL     1      36.153  14.822  -2.111  1.00  0.00     0.050 A 
ATOM      5  C   UNL     1      36.953  14.477  -3.190  1.00  0.00     0.157 A 
ATOM      6  C   UNL     1      35.005  14.075  -4.556  1.00  0.00     0.054 A 
ATOM      7  C   UNL     1      36.385  14.099  -4.403  1.00  0.00     0.157 A 
BRANCH   5   8
ATOM      8  O   UNL     1      38.313  14.500  -3.058  1.00  0.00    -0.504 OA
ATOM      9  H   UNL     1      38.593  13.646  -3.445  1.00  0.00     0.293 HD
ENDBRANCH   5   8
BRANCH   7  10
ATOM     10  O   UNL     1      37.221  13.745  -5.428  1.00  0.00    -0.504 OA
ATOM     11  H   UNL     1      36.705  13.857  -6.248  1.00  0.00     0.293 HD
ENDBRANCH   7  10
ENDBRANCH   1   2
BRANCH   1  12
ATOM     12  C   UNL     1      32.093  15.669  -4.211  1.00  0.00     0.164 C 
BRANCH  12  13
ATOM     13  C   UNL     1      30.609  15.478  -4.654  1.00  0.00     0.070 C 
ATOM     14  O   UNL     1      30.445  15.607  -5.909  1.00  0.00    -0.547 OA
ATOM     15  O   UNL     1      29.765  15.235  -3.750  1.00  0.00    -0.547 OA
ENDBRANCH  12  13
BRANCH  12  16
ATOM     16  O   UNL     1      32.881  16.064  -5.371  1.00  0.00    -0.387 OA
ATOM     17  H   UNL     1      32.471  15.511  -6.085  1.00  0.00     0.211 HD
ENDBRANCH  12  16
ENDBRANCH   1  12
TORSDOF 6
ENDMDL
MODEL 4
REMARK VINA RESULT:    -6.636      3.442      5.049
REMARK INTER + INTRA:          -8.616
REMARK INTER:                  -8.492
REMARK INTRA:                  -0.124
REMARK UNBOUND:                -0.235
REMARK SMILES O=C([O-])[C@H](O)Cc1ccc(O)c(O)c1
REMARK SMILES IDX 6 1 7 2 8 3 9 4 10 5 14 6 12 7 11 8 13 10 4 12 2 13 1 14
REMARK SMILES IDX 3 15 5 16
REMARK H PARENT 11 9 13 11 5 17
ROOT
ATOM      1  C   UNL     1      30.648  15.203  -3.629  1.00  0.00     0.073 C 
ENDROOT
BRANCH   1   2
ATOM      2  C   UNL     1      29.653  15.478  -4.739  1.00  0.00    -0.041 A 
ATOM      3  C   UNL     1      28.284  15.628  -4.457  1.00  0.00     0.008 A 
ATOM      4  C   UNL     1      27.372  15.887  -5.484  1.00  0.00     0.050 A 
ATOM      5  C   UNL     1      27.833  16.010  -6.785  1.00  0.00     0.157 A 
ATOM      6  C   UNL     1      30.099  15.606  -6.062  1.00  0.00     0.054 A 
ATOM      7  C   UNL     1      29.188  15.877  -7.074  1.00  0.00     0.157 A 
BRANCH   5   8
ATOM      8  O   UNL     1      26.949  16.271  -7.795  1.00  0.00    -0.504 OA
ATOM      9  H   UNL     1      26.523  15.405  -7.953  1.00  0.00     0.293 HD
ENDBRANCH   5   8
BRANCH   7  10
ATOM     10  O   UNL     1      29.593  16.030  -8.373  1.00  0.00    -0.504 OA
ATOM     11  H   UNL     1      29.025  15.441  -8.904  1.00  0.00     0.293 HD
ENDBRANCH   7  10
ENDBRANCH   1   2
BRANCH   1  12
ATOM     12  C   UNL     1      32.086  15.078  -4.134  1.00  0.00     0.164 C 
BRANCH  12  13
ATOM     13  C   UNL     1      32.928  14.138  -3.218  1.00  0.00     0.070 C 
ATOM     14  O   UNL     1      34.013  13.755  -3.763  1.00  0.00    -0.547 OA
ATOM     15  O   UNL     1      32.453  13.862  -2.084  1.00  0.00    -0.547 OA
ENDBRANCH  12  13
BRANCH  12  16
ATOM     16  O   UNL     1      32.700  16.400  -4.141  1.00  0.00    -0.387 OA
ATOM     17  H   UNL     1      33.606  16.196  -3.795  1.00  0.00     0.211 HD
ENDBRANCH  12  16
ENDBRANCH   1  12
TORSDOF 6
ENDMDL
MODEL 5
REMARK VINA RESULT:    -6.592      4.789      8.924
REMARK INTER + INTRA:          -8.561
REMARK INTER:                  -8.407
REMARK INTRA:                  -0.154
REMARK UNBOUND:                -0.235
REMARK SMILES O=C([O-])[C@H](O)Cc1ccc(O)c(O)c1
REMARK SMILES IDX 6 1 7 2 8 3 9 4 10 5 14 6 12 7 11 8 13 10 4 12 2 13 1 14
REMARK SMILES IDX 3 15 5 16
REMARK H PARENT 11 9 13 11 5 17
ROOT
ATOM      1  C   UNL     1      26.500  15.959  -5.680  1.00  0.00     0.073 C 
ENDROOT
BRANCH   1   2
ATOM      2  C   UNL     1      27.999  15.795  -5.528  1.00  0.00    -0.041 A 
ATOM      3  C   UNL     1      28.851  15.889  -6.643  1.00  0.00     0.008 A 
ATOM      4  C   UNL     1      30.233  15.744  -6.495  1.00  0.00     0.050 A 
ATOM      5  C   UNL     1      30.760  15.517  -5.233  1.00  0.00     0.157 A 
ATOM      6  C   UNL     1      28.552  15.566  -4.260  1.00  0.00     0.054 A 
ATOM      7  C   UNL     1      29.927  15.435  -4.121  1.00  0.00     0.157 A 
BRANCH   5   8
ATOM      8  O   UNL     1      32.111  15.380  -5.079  1.00  0.00    -0.504 OA
ATOM      9  H   UNL     1      32.413  15.100  -5.966  1.00  0.00     0.293 HD
ENDBRANCH   5   8
BRANCH   7  10
ATOM     10  O   UNL     1      30.502  15.232  -2.894  1.00  0.00    -0.504 OA
ATOM     11  H   UNL     1      29.973  15.750  -2.259  1.00  0.00     0.293 HD
ENDBRANCH   7  10
ENDBRANCH   1   2
BRANCH   1  12
ATOM     12  C   UNL     1      26.106  16.677  -6.971  1.00  0.00     0.164 C 
BRANCH  12  13
ATOM     13  C   UNL     1      26.353  18.213  -6.862  1.00  0.00     0.070 C 
ATOM     14  O   UNL     1      26.993  18.685  -7.856  1.00  0.00    -0.547 OA
ATOM     15  O   UNL     1      25.915  18.795  -5.833  1.00  0.00    -0.547 OA
ENDBRANCH  12  13
BRANCH  12  16
ATOM     16  O   UNL     1      24.690  16.446  -7.226  1.00  0.00    -0.387 OA
ATOM     17  H   UNL     1      24.362  17.372  -7.356  1.00  0.00     0.211 HD
ENDBRANCH  12  16
ENDBRANCH   1  12
TORSDOF 6
ENDMDL
MODEL 6
REMARK VINA RESULT:    -6.560      5.652      9.428
REMARK INTER + INTRA:          -8.521
REMARK INTER:                  -8.368
REMARK INTRA:                  -0.152
REMARK UNBOUND:                -0.235
REMARK SMILES O=C([O-])[C@H](O)Cc1ccc(O)c(O)c1
REMARK SMILES IDX 6 1 7 2 8 3 9 4 10 5 14 6 12 7 11 8 13 10 4 12 2 13 1 14
REMARK SMILES IDX 3 15 5 16
REMARK H PARENT 11 9 13 11 5 17
ROOT
ATOM      1  C   UNL     1      25.902  16.511  -7.079  1.00  0.00     0.073 C 
ENDROOT
BRANCH   1   2
ATOM      2  C   UNL     1      27.235  16.180  -6.437  1.00  0.00    -0.041 A 
ATOM      3  C   UNL     1      27.321  15.886  -5.065  1.00  0.00     0.008 A 
ATOM      4  C   UNL     1      28.551  15.575  -4.480  1.00  0.00     0.050 A 
ATOM      5  C   UNL     1      29.690  15.547  -5.271  1.00  0.00     0.157 A 
ATOM      6  C   UNL     1      28.398  16.145  -7.220  1.00  0.00     0.054 A 
ATOM      7  C   UNL     1      29.615  15.824  -6.633  1.00  0.00     0.157 A 
BRANCH   5   8
ATOM      8  O   UNL     1      30.897  15.237  -4.709  1.00  0.00    -0.504 OA
ATOM      9  H   UNL     1      31.504  15.898  -5.098  1.00  0.00     0.293 HD
ENDBRANCH   5   8
BRANCH   7  10
ATOM     10  O   UNL     1      30.766  15.760  -7.372  1.00  0.00    -0.504 OA
ATOM     11  H   UNL     1      31.434  16.269  -6.877  1.00  0.00     0.293 HD
ENDBRANCH   7  10
ENDBRANCH   1   2
BRANCH   1  12
ATOM     12  C   UNL     1      26.012  17.584  -8.162  1.00  0.00     0.164 C 
BRANCH  12  13
ATOM     13  C   UNL     1      26.366  18.974  -7.548  1.00  0.00     0.070 C 
ATOM     14  O   UNL     1      27.110  19.676  -8.304  1.00  0.00    -0.547 OA
ATOM     15  O   UNL     1      25.899  19.235  -6.406  1.00  0.00    -0.547 OA
ENDBRANCH  12  13
BRANCH  12  16
ATOM     16  O   UNL     1      24.734  17.689  -8.854  1.00  0.00    -0.387 OA
ATOM     17  H   UNL     1      24.970  18.280  -9.613  1.00  0.00     0.211 HD
ENDBRANCH  12  16
ENDBRANCH   1  12
TORSDOF 6
ENDMDL
MODEL 7
REMARK VINA RESULT:    -6.522      1.496      2.055
REMARK INTER + INTRA:          -8.473
REMARK INTER:                  -8.314
REMARK INTRA:                  -0.158
REMARK UNBOUND:                -0.235
REMARK SMILES O=C([O-])[C@H](O)Cc1ccc(O)c(O)c1
REMARK SMILES IDX 6 1 7 2 8 3 9 4 10 5 14 6 12 7 11 8 13 10 4 12 2 13 1 14
REMARK SMILES IDX 3 15 5 16
REMARK H PARENT 11 9 13 11 5 17
ROOT
ATOM      1  C   UNL     1      36.810  14.693  -2.331  1.00  0.00     0.073 C 
ENDROOT
BRANCH   1   2
ATOM      2  C   UNL     1      35.336  14.840  -2.653  1.00  0.00    -0.041 A 
ATOM      3  C   UNL     1      34.355  14.529  -1.695  1.00  0.00     0.008 A 
ATOM      4  C   UNL     1      32.998  14.672  -1.996  1.00  0.00     0.050 A 
ATOM      5  C   UNL     1      32.626  15.138  -3.248  1.00  0.00     0.157 A 
ATOM      6  C   UNL     1      34.939  15.309  -3.913  1.00  0.00     0.054 A 
ATOM      7  C   UNL     1      33.589  15.461  -4.199  1.00  0.00     0.157 A 
BRANCH   5   8
ATOM      8  O   UNL     1      31.301  15.288  -3.548  1.00  0.00    -0.504 OA
ATOM      9  H   UNL     1      30.870  14.577  -3.034  1.00  0.00     0.293 HD
ENDBRANCH   5   8
BRANCH   7  10
ATOM     10  O   UNL     1      33.168  15.938  -5.412  1.00  0.00    -0.504 OA
ATOM     11  H   UNL     1      32.224  15.704  -5.482  1.00  0.00     0.293 HD
ENDBRANCH   7  10
ENDBRANCH   1   2
BRANCH   1  12
ATOM     12  C   UNL     1      37.126  13.415  -1.553  1.00  0.00     0.164 C 
BRANCH  12  13
ATOM     13  C   UNL     1      38.636  13.348  -1.164  1.00  0.00     0.070 C 
ATOM     14  O   UNL     1      39.411  13.414  -2.170  1.00  0.00    -0.547 OA
ATOM     15  O   UNL     1      38.909  13.229   0.061  1.00  0.00    -0.547 OA
ENDBRANCH  12  13
BRANCH  12  16
ATOM     16  O   UNL     1      36.804  12.263  -2.385  1.00  0.00    -0.387 OA
ATOM     17  H   UNL     1      37.586  11.678  -2.220  1.00  0.00     0.211 HD
ENDBRANCH  12  16
ENDBRANCH   1  12
TORSDOF 6
ENDMDL
MODEL 8
REMARK VINA RESULT:    -6.379      1.671      2.316
REMARK INTER + INTRA:          -8.292
REMARK INTER:                  -8.152
REMARK INTRA:                  -0.139
REMARK UNBOUND:                -0.235
REMARK SMILES O=C([O-])[C@H](O)Cc1ccc(O)c(O)c1
REMARK SMILES IDX 6 1 7 2 8 3 9 4 10 5 14 6 12 7 11 8 13 10 4 12 2 13 1 14
REMARK SMILES IDX 3 15 5 16
REMARK H PARENT 11 9 13 11 5 17
ROOT
ATOM      1  C   UNL     1      34.154  15.405  -3.532  1.00  0.00     0.073 C 
ENDROOT
BRANCH   1   2
ATOM      2  C   UNL     1      32.659  15.360  -3.777  1.00  0.00    -0.041 A 
ATOM      3  C   UNL     1      31.769  15.027  -2.740  1.00  0.00     0.008 A 
ATOM      4  C   UNL     1      30.391  14.993  -2.970  1.00  0.00     0.050 A 
ATOM      5  C   UNL     1      29.906  15.304  -4.231  1.00  0.00     0.157 A 
ATOM      6  C   UNL     1      32.148  15.671  -5.045  1.00  0.00     0.054 A 
ATOM      7  C   UNL     1      30.777  15.647  -5.262  1.00  0.00     0.157 A 
BRANCH   5   8
ATOM      8  O   UNL     1      28.559  15.281  -4.463  1.00  0.00    -0.504 OA
ATOM      9  H   UNL     1      28.208  14.773  -3.705  1.00  0.00     0.293 HD
ENDBRANCH   5   8
BRANCH   7  10
ATOM     10  O   UNL     1      30.244  15.967  -6.482  1.00  0.00    -0.504 OA
ATOM     11  H   UNL     1      30.811  15.535  -7.147  1.00  0.00     0.293 HD
ENDBRANCH   7  10
ENDBRANCH   1   2
BRANCH   1  12
ATOM     12  C   UNL     1      34.810  14.026  -3.593  1.00  0.00     0.164 C 
BRANCH  12  13
ATOM     13  C   UNL     1      36.286  14.077  -3.087  1.00  0.00     0.070 C 
ATOM     14  O   UNL     1      36.400  14.623  -1.943  1.00  0.00    -0.547 OA
ATOM     15  O   UNL     1      37.171  13.599  -3.847  1.00  0.00    -0.547 OA
ENDBRANCH  12  13
BRANCH  12  16
ATOM     16  O   UNL     1      34.804  13.560  -4.974  1.00  0.00    -0.387 OA
ATOM     17  H   UNL     1      35.300  14.288  -5.428  1.00  0.00     0.211 HD
ENDBRANCH  12  16
ENDBRANCH   1  12
TORSDOF 6
ENDMDL
MODEL 9
REMARK VINA RESULT:    -6.345      4.693      7.054
REMARK INTER + INTRA:          -8.249
REMARK INTER:                  -8.279
REMARK INTRA:                   0.031
REMARK UNBOUND:                -0.235
REMARK SMILES O=C([O-])[C@H](O)Cc1ccc(O)c(O)c1
REMARK SMILES IDX 6 1 7 2 8 3 9 4 10 5 14 6 12 7 11 8 13 10 4 12 2 13 1 14
REMARK SMILES IDX 3 15 5 16
REMARK H PARENT 11 9 13 11 5 17
ROOT
ATOM      1  C   UNL     1      29.100  15.769  -4.660  1.00  0.00     0.073 C 
ENDROOT
BRANCH   1   2
ATOM      2  C   UNL     1      28.124  15.572  -5.802  1.00  0.00    -0.041 A 
ATOM      3  C   UNL     1      28.436  14.721  -6.877  1.00  0.00     0.008 A 
ATOM      4  C   UNL     1      27.529  14.538  -7.924  1.00  0.00     0.050 A 
ATOM      5  C   UNL     1      26.309  15.195  -7.887  1.00  0.00     0.157 A 
ATOM      6  C   UNL     1      26.884  16.227  -5.783  1.00  0.00     0.054 A 
ATOM      7  C   UNL     1      25.984  16.029  -6.821  1.00  0.00     0.157 A 
BRANCH   5   8
ATOM      8  O   UNL     1      25.412  15.016  -8.904  1.00  0.00    -0.504 OA
ATOM      9  H   UNL     1      24.806  14.333  -8.553  1.00  0.00     0.293 HD
ENDBRANCH   5   8
BRANCH   7  10
ATOM     10  O   UNL     1      24.756  16.636  -6.823  1.00  0.00    -0.504 OA
ATOM     11  H   UNL     1      24.669  17.073  -5.956  1.00  0.00     0.293 HD
ENDBRANCH   7  10
ENDBRANCH   1   2
BRANCH   1  12
ATOM     12  C   UNL     1      30.483  15.186  -4.949  1.00  0.00     0.164 C 
BRANCH  12  13
ATOM     13  C   UNL     1      31.380  15.193  -3.672  1.00  0.00     0.070 C 
ATOM     14  O   UNL     1      30.711  15.097  -2.594  1.00  0.00    -0.547 OA
ATOM     15  O   UNL     1      32.624  15.301  -3.844  1.00  0.00    -0.547 OA
ENDBRANCH  12  13
BRANCH  12  16
ATOM     16  O   UNL     1      31.128  15.989  -5.980  1.00  0.00    -0.387 OA
ATOM     17  H   UNL     1      31.012  16.904  -5.616  1.00  0.00     0.211 HD
ENDBRANCH  12  16
ENDBRANCH   1  12
TORSDOF 6
ENDMDL
