MODEL 1
REMARK VINA RESULT:    -9.207      0.000      0.000
REMARK INTER + INTRA:         -16.400
REMARK INTER:                 -15.396
REMARK INTRA:                  -1.004
REMARK UNBOUND:                -1.004
REMARK SMILES C[C@@H]1O[C@@H](OC[C@H]2O[C@@H](OCC(O)c3ccc(O)c(O)c3)[C@H](O)[C@@H](O)[C@@H]2O)[C@H](O)[C@H](O)[C@H]1O
REMARK SMILES IDX 7 1 26 2 24 3 22 4 9 5 8 6 6 7 5 8 4 9 2 10 32 11 3 12 30 13
REMARK SMILES IDX 28 14 1 15 33 16 31 18 29 20 27 22 25 24 10 26 11 27 12 28
REMARK SMILES IDX 14 29 21 30 15 31 19 32 16 33 17 34 20 35 18 37 13 39 23 41
REMARK H PARENT 33 17 31 19 29 21 27 23 25 25 20 36 18 38 13 40 23 42
ROOT
ATOM      1  C   UNL     1      26.875  17.603  -8.490  1.00  0.00     0.178 C 
ATOM      2  C   UNL     1      25.560  16.818  -8.369  1.00  0.00     0.177 C 
ATOM      3  C   UNL     1      25.771  15.378  -8.835  1.00  0.00     0.179 C 
ATOM      4  C   UNL     1      26.940  14.746  -8.091  1.00  0.00     0.202 C 
ATOM      5  C   UNL     1      28.191  15.632  -8.242  1.00  0.00     0.282 C 
ATOM      6  O   UNL     1      27.925  16.946  -7.748  1.00  0.00    -0.341 OA
ENDROOT
BRANCH   1   7
ATOM      7  C   UNL     1      26.700  19.031  -7.951  1.00  0.00     0.198 C 
BRANCH   7   8
ATOM      8  O   UNL     1      27.119  19.963  -8.956  1.00  0.00    -0.347 OA
BRANCH   8   9
ATOM      9  C   UNL     1      26.116  20.209  -9.944  1.00  0.00     0.281 C 
ATOM     10  C   UNL     1      27.224  22.163 -10.781  1.00  0.00     0.150 C 
ATOM     11  C   UNL     1      26.095  23.092 -10.305  1.00  0.00     0.174 C 
ATOM     12  O   UNL     1      26.721  20.859 -11.074  1.00  0.00    -0.344 OA
ATOM     13  C   UNL     1      25.400  22.465  -9.088  1.00  0.00     0.179 C 
ATOM     14  C   UNL     1      24.937  21.040  -9.393  1.00  0.00     0.202 C 
ATOM     15  C   UNL     1      27.888  22.685 -12.051  1.00  0.00     0.041 C 
BRANCH  11  16
ATOM     16  O   UNL     1      26.590  24.399  -9.949  1.00  0.00    -0.388 OA
ATOM     17  H   UNL     1      26.501  24.458  -8.978  1.00  0.00     0.211 HD
ENDBRANCH  11  16
BRANCH  13  18
ATOM     18  O   UNL     1      24.252  23.255  -8.727  1.00  0.00    -0.387 OA
ATOM     19  H   UNL     1      24.401  24.135  -9.126  1.00  0.00     0.211 HD
ENDBRANCH  13  18
BRANCH  14  20
ATOM     20  O   UNL     1      23.849  21.092 -10.332  1.00  0.00    -0.385 OA
ATOM     21  H   UNL     1      23.718  20.162 -10.610  1.00  0.00     0.211 HD
ENDBRANCH  14  20
ENDBRANCH   8   9
ENDBRANCH   7   8
ENDBRANCH   1   7
BRANCH   2  22
ATOM     22  O   UNL     1      24.525  17.415  -9.152  1.00  0.00    -0.387 OA
ATOM     23  H   UNL     1      24.919  17.551 -10.039  1.00  0.00     0.211 HD
ENDBRANCH   2  22
BRANCH   3  24
ATOM     24  O   UNL     1      24.566  14.631  -8.606  1.00  0.00    -0.387 OA
ATOM     25  H   UNL     1      24.263  14.358  -9.495  1.00  0.00     0.211 HD
ENDBRANCH   3  24
BRANCH   5  26
ATOM     26  O   UNL     1      29.214  15.002  -7.464  1.00  0.00    -0.347 OA
BRANCH  26  27
ATOM     27  C   UNL     1      29.946  15.885  -6.605  1.00  0.00     0.200 C 
BRANCH  27  28
ATOM     28  C   UNL     1      29.772  15.652  -5.088  1.00  0.00     0.170 C 
BRANCH  28  29
ATOM     29  C   UNL     1      31.010  15.365  -4.257  1.00  0.00    -0.013 A 
ATOM     30  C   UNL     1      32.272  15.572  -4.847  1.00  0.00     0.056 A 
ATOM     31  C   UNL     1      30.966  14.870  -2.942  1.00  0.00     0.010 A 
ATOM     32  C   UNL     1      33.437  15.327  -4.129  1.00  0.00     0.157 A 
ATOM     33  C   UNL     1      32.141  14.605  -2.231  1.00  0.00     0.050 A 
ATOM     34  C   UNL     1      33.368  14.837  -2.831  1.00  0.00     0.157 A 
BRANCH  32  35
ATOM     35  O   UNL     1      34.673  15.582  -4.657  1.00  0.00    -0.504 OA
ATOM     36  H   UNL     1      34.543  15.892  -5.583  1.00  0.00     0.293 HD
ENDBRANCH  32  35
BRANCH  34  37
ATOM     37  O   UNL     1      34.513  14.587  -2.131  1.00  0.00    -0.504 OA
ATOM     38  H   UNL     1      34.217  14.065  -1.359  1.00  0.00     0.293 HD
ENDBRANCH  34  37
ENDBRANCH  28  29
BRANCH  28  39
ATOM     39  O   UNL     1      28.794  14.633  -4.866  1.00  0.00    -0.386 OA
ATOM     40  H   UNL     1      29.251  13.916  -4.376  1.00  0.00     0.211 HD
ENDBRANCH  28  39
ENDBRANCH  27  28
ENDBRANCH  26  27
ENDBRANCH   5  26
BRANCH   4  41
ATOM     41  O   UNL     1      27.162  13.426  -8.613  1.00  0.00    -0.385 OA
ATOM     42  H   UNL     1      26.399  13.250  -9.199  1.00  0.00     0.211 HD
ENDBRANCH   4  41
TORSDOF 16
ENDMDL
MODEL 2
REMARK VINA RESULT:    -9.130      2.560      6.728
REMARK INTER + INTRA:         -16.272
REMARK INTER:                 -14.953
REMARK INTRA:                  -1.319
REMARK UNBOUND:                -1.004
REMARK SMILES C[C@@H]1O[C@@H](OC[C@H]2O[C@@H](OCC(O)c3ccc(O)c(O)c3)[C@H](O)[C@@H](O)[C@@H]2O)[C@H](O)[C@H](O)[C@H]1O
REMARK SMILES IDX 7 1 26 2 24 3 22 4 9 5 8 6 6 7 5 8 4 9 2 10 32 11 3 12 30 13
REMARK SMILES IDX 28 14 1 15 33 16 31 18 29 20 27 22 25 24 10 26 11 27 12 28
REMARK SMILES IDX 14 29 21 30 15 31 19 32 16 33 17 34 20 35 18 37 13 39 23 41
REMARK H PARENT 33 17 31 19 29 21 27 23 25 25 20 36 18 38 13 40 23 42
ROOT
ATOM      1  C   UNL     1      26.353  16.348  -9.131  1.00  0.00     0.178 C 
ATOM      2  C   UNL     1      26.916  17.765  -9.308  1.00  0.00     0.177 C 
ATOM      3  C   UNL     1      26.313  18.698  -8.260  1.00  0.00     0.179 C 
ATOM      4  C   UNL     1      26.510  18.124  -6.862  1.00  0.00     0.202 C 
ATOM      5  C   UNL     1      25.949  16.690  -6.808  1.00  0.00     0.282 C 
ATOM      6  O   UNL     1      26.592  15.873  -7.789  1.00  0.00    -0.341 OA
ENDROOT
BRANCH   1   7
ATOM      7  C   UNL     1      27.009  15.379 -10.128  1.00  0.00     0.198 C 
BRANCH   7   8
ATOM      8  O   UNL     1      26.538  14.051  -9.867  1.00  0.00    -0.347 OA
BRANCH   8   9
ATOM      9  C   UNL     1      27.539  13.052 -10.073  1.00  0.00     0.281 C 
ATOM     10  C   UNL     1      25.997  11.521 -11.088  1.00  0.00     0.150 C 
ATOM     11  C   UNL     1      26.124  10.518  -9.929  1.00  0.00     0.174 C 
ATOM     12  O   UNL     1      27.198  12.281 -11.237  1.00  0.00    -0.344 OA
ATOM     13  C   UNL     1      26.484  11.272  -8.641  1.00  0.00     0.179 C 
ATOM     14  C   UNL     1      27.725  12.142  -8.841  1.00  0.00     0.202 C 
ATOM     15  C   UNL     1      25.739  10.820 -12.417  1.00  0.00     0.041 C 
BRANCH  11  16
ATOM     16  O   UNL     1      24.903   9.780  -9.723  1.00  0.00    -0.388 OA
ATOM     17  H   UNL     1      24.884   9.102 -10.426  1.00  0.00     0.211 HD
ENDBRANCH  11  16
BRANCH  13  18
ATOM     18  O   UNL     1      26.748  10.329  -7.586  1.00  0.00    -0.387 OA
ATOM     19  H   UNL     1      27.334   9.651  -7.978  1.00  0.00     0.211 HD
ENDBRANCH  13  18
BRANCH  14  20
ATOM     20  O   UNL     1      28.875  11.290  -8.988  1.00  0.00    -0.385 OA
ATOM     21  H   UNL     1      28.521  10.380  -8.897  1.00  0.00     0.211 HD
ENDBRANCH  14  20
ENDBRANCH   8   9
ENDBRANCH   7   8
ENDBRANCH   1   7
BRANCH   2  22
ATOM     22  O   UNL     1      26.630  18.279 -10.610  1.00  0.00    -0.387 OA
ATOM     23  H   UNL     1      27.070  19.153 -10.645  1.00  0.00     0.211 HD
ENDBRANCH   2  22
BRANCH   3  24
ATOM     24  O   UNL     1      26.937  19.987  -8.365  1.00  0.00    -0.387 OA
ATOM     25  H   UNL     1      26.701  20.312  -9.259  1.00  0.00     0.211 HD
ENDBRANCH   3  24
BRANCH   5  26
ATOM     26  O   UNL     1      26.234  16.207  -5.491  1.00  0.00    -0.347 OA
BRANCH  26  27
ATOM     27  C   UNL     1      27.585  16.405  -5.056  1.00  0.00     0.200 C 
BRANCH  27  28
ATOM     28  C   UNL     1      28.469  15.140  -4.996  1.00  0.00     0.170 C 
BRANCH  28  29
ATOM     29  C   UNL     1      29.889  15.279  -4.479  1.00  0.00    -0.013 A 
ATOM     30  C   UNL     1      30.899  15.643  -5.391  1.00  0.00     0.056 A 
ATOM     31  C   UNL     1      30.259  15.030  -3.146  1.00  0.00     0.010 A 
ATOM     32  C   UNL     1      32.215  15.787  -4.969  1.00  0.00     0.157 A 
ATOM     33  C   UNL     1      31.590  15.155  -2.731  1.00  0.00     0.050 A 
ATOM     34  C   UNL     1      32.557  15.534  -3.647  1.00  0.00     0.157 A 
BRANCH  32  35
ATOM     35  O   UNL     1      33.201  16.203  -5.821  1.00  0.00    -0.504 OA
ATOM     36  H   UNL     1      32.801  16.299  -6.716  1.00  0.00     0.293 HD
ENDBRANCH  32  35
BRANCH  34  37
ATOM     37  O   UNL     1      33.852  15.665  -3.236  1.00  0.00    -0.504 OA
ATOM     38  H   UNL     1      34.255  16.272  -3.889  1.00  0.00     0.293 HD
ENDBRANCH  34  37
ENDBRANCH  28  29
BRANCH  28  39
ATOM     39  O   UNL     1      28.481  14.499  -6.275  1.00  0.00    -0.386 OA
ATOM     40  H   UNL     1      29.425  14.413  -6.530  1.00  0.00     0.211 HD
ENDBRANCH  28  39
ENDBRANCH  27  28
ENDBRANCH  26  27
ENDBRANCH   5  26
BRANCH   4  41
ATOM     41  O   UNL     1      25.857  18.982  -5.912  1.00  0.00    -0.385 OA
ATOM     42  H   UNL     1      26.214  19.875  -6.087  1.00  0.00     0.211 HD
ENDBRANCH   4  41
TORSDOF 16
ENDMDL
MODEL 3
REMARK VINA RESULT:    -9.075      1.209      1.458
REMARK INTER + INTRA:         -16.179
REMARK INTER:                 -14.926
REMARK INTRA:                  -1.253
REMARK UNBOUND:                -1.004
REMARK SMILES C[C@@H]1O[C@@H](OC[C@H]2O[C@@H](OCC(O)c3ccc(O)c(O)c3)[C@H](O)[C@@H](O)[C@@H]2O)[C@H](O)[C@H](O)[C@H]1O
REMARK SMILES IDX 7 1 26 2 24 3 22 4 9 5 8 6 6 7 5 8 4 9 2 10 32 11 3 12 30 13
REMARK SMILES IDX 28 14 1 15 33 16 31 18 29 20 27 22 25 24 10 26 11 27 12 28
REMARK SMILES IDX 14 29 21 30 15 31 19 32 16 33 17 34 20 35 18 37 13 39 23 41
REMARK H PARENT 33 17 31 19 29 21 27 23 25 25 20 36 18 38 13 40 23 42
ROOT
ATOM      1  C   UNL     1      27.067  18.292  -8.694  1.00  0.00     0.178 C 
ATOM      2  C   UNL     1      26.256  17.538  -9.758  1.00  0.00     0.177 C 
ATOM      3  C   UNL     1      27.021  16.295 -10.208  1.00  0.00     0.179 C 
ATOM      4  C   UNL     1      27.406  15.443  -9.005  1.00  0.00     0.202 C 
ATOM      5  C   UNL     1      28.175  16.305  -7.986  1.00  0.00     0.282 C 
ATOM      6  O   UNL     1      27.378  17.421  -7.585  1.00  0.00    -0.341 OA
ENDROOT
BRANCH   1   7
ATOM      7  C   UNL     1      26.276  19.503  -8.172  1.00  0.00     0.198 C 
BRANCH   7   8
ATOM      8  O   UNL     1      26.537  20.630  -9.018  1.00  0.00    -0.347 OA
BRANCH   8   9
ATOM      9  C   UNL     1      25.349  21.322  -9.410  1.00  0.00     0.281 C 
ATOM     10  C   UNL     1      26.237  21.912 -11.557  1.00  0.00     0.150 C 
ATOM     11  C   UNL     1      26.248  23.412 -11.217  1.00  0.00     0.174 C 
ATOM     12  O   UNL     1      25.206  21.234 -10.837  1.00  0.00    -0.344 OA
ATOM     13  C   UNL     1      26.404  23.588  -9.699  1.00  0.00     0.179 C 
ATOM     14  C   UNL     1      25.341  22.792  -8.941  1.00  0.00     0.202 C 
ATOM     15  C   UNL     1      25.983  21.671 -13.042  1.00  0.00     0.041 C 
BRANCH  11  16
ATOM     16  O   UNL     1      27.317  24.107 -11.889  1.00  0.00    -0.388 OA
ATOM     17  H   UNL     1      28.122  23.579 -11.718  1.00  0.00     0.211 HD
ENDBRANCH  11  16
BRANCH  13  18
ATOM     18  O   UNL     1      26.269  24.979  -9.358  1.00  0.00    -0.387 OA
ATOM     19  H   UNL     1      27.124  25.237  -8.960  1.00  0.00     0.211 HD
ENDBRANCH  13  18
BRANCH  14  20
ATOM     20  O   UNL     1      24.057  23.403  -9.156  1.00  0.00    -0.385 OA
ATOM     21  H   UNL     1      23.474  22.994  -8.484  1.00  0.00     0.211 HD
ENDBRANCH  14  20
ENDBRANCH   8   9
ENDBRANCH   7   8
ENDBRANCH   1   7
BRANCH   2  22
ATOM     22  O   UNL     1      25.996  18.364 -10.895  1.00  0.00    -0.387 OA
ATOM     23  H   UNL     1      25.346  17.866 -11.432  1.00  0.00     0.211 HD
ENDBRANCH   2  22
BRANCH   3  24
ATOM     24  O   UNL     1      26.199  15.542 -11.114  1.00  0.00    -0.387 OA
ATOM     25  H   UNL     1      25.599  16.201 -11.520  1.00  0.00     0.211 HD
ENDBRANCH   3  24
BRANCH   5  26
ATOM     26  O   UNL     1      28.436  15.450  -6.868  1.00  0.00    -0.347 OA
BRANCH  26  27
ATOM     27  C   UNL     1      29.736  15.599  -6.285  1.00  0.00     0.200 C 
BRANCH  27  28
ATOM     28  C   UNL     1      29.790  15.617  -4.742  1.00  0.00     0.170 C 
BRANCH  28  29
ATOM     29  C   UNL     1      31.116  15.325  -4.064  1.00  0.00    -0.013 A 
ATOM     30  C   UNL     1      32.301  15.557  -4.789  1.00  0.00     0.056 A 
ATOM     31  C   UNL     1      31.226  14.803  -2.764  1.00  0.00     0.010 A 
ATOM     32  C   UNL     1      33.542  15.308  -4.214  1.00  0.00     0.157 A 
ATOM     33  C   UNL     1      32.477  14.534  -2.197  1.00  0.00     0.050 A 
ATOM     34  C   UNL     1      33.626  14.791  -2.928  1.00  0.00     0.157 A 
BRANCH  32  35
ATOM     35  O   UNL     1      34.708  15.587  -4.873  1.00  0.00    -0.504 OA
ATOM     36  H   UNL     1      35.149  14.729  -5.073  1.00  0.00     0.293 HD
ENDBRANCH  32  35
BRANCH  34  37
ATOM     37  O   UNL     1      34.844  14.538  -2.368  1.00  0.00    -0.504 OA
ATOM     38  H   UNL     1      34.766  14.872  -1.452  1.00  0.00     0.293 HD
ENDBRANCH  34  37
ENDBRANCH  28  29
BRANCH  28  39
ATOM     39  O   UNL     1      28.777  14.755  -4.215  1.00  0.00    -0.386 OA
ATOM     40  H   UNL     1      28.327  14.355  -4.990  1.00  0.00     0.211 HD
ENDBRANCH  28  39
ENDBRANCH  27  28
ENDBRANCH  26  27
ENDBRANCH   5  26
BRANCH   4  41
ATOM     41  O   UNL     1      28.195  14.331  -9.457  1.00  0.00    -0.385 OA
ATOM     42  H   UNL     1      28.532  13.908  -8.643  1.00  0.00     0.211 HD
ENDBRANCH   4  41
TORSDOF 16
ENDMDL
MODEL 4
REMARK VINA RESULT:    -8.929      1.615      2.248
REMARK INTER + INTRA:         -15.936
REMARK INTER:                 -14.500
REMARK INTRA:                  -1.436
REMARK UNBOUND:                -1.004
REMARK SMILES C[C@@H]1O[C@@H](OC[C@H]2O[C@@H](OCC(O)c3ccc(O)c(O)c3)[C@H](O)[C@@H](O)[C@@H]2O)[C@H](O)[C@H](O)[C@H]1O
REMARK SMILES IDX 7 1 26 2 24 3 22 4 9 5 8 6 6 7 5 8 4 9 2 10 32 11 3 12 30 13
REMARK SMILES IDX 28 14 1 15 33 16 31 18 29 20 27 22 25 24 10 26 11 27 12 28
REMARK SMILES IDX 14 29 21 30 15 31 19 32 16 33 17 34 20 35 18 37 13 39 23 41
REMARK H PARENT 33 17 31 19 29 21 27 23 25 25 20 36 18 38 13 40 23 42
ROOT
ATOM      1  C   UNL     1      26.297  18.949  -8.301  1.00  0.00     0.178 C 
ATOM      2  C   UNL     1      25.388  18.192  -9.281  1.00  0.00     0.177 C 
ATOM      3  C   UNL     1      25.769  16.713  -9.304  1.00  0.00     0.179 C 
ATOM      4  C   UNL     1      25.767  16.142  -7.892  1.00  0.00     0.202 C 
ATOM      5  C   UNL     1      26.673  16.997  -6.986  1.00  0.00     0.282 C 
ATOM      6  O   UNL     1      26.227  18.355  -6.986  1.00  0.00    -0.341 OA
ENDROOT
BRANCH   1   7
ATOM      7  C   UNL     1      25.876  20.424  -8.206  1.00  0.00     0.198 C 
BRANCH   7   8
ATOM      8  O   UNL     1      26.495  21.155  -9.271  1.00  0.00    -0.347 OA
BRANCH   8   9
ATOM      9  C   UNL     1      25.658  22.186  -9.803  1.00  0.00     0.281 C 
ATOM     10  C   UNL     1      26.258  21.693 -12.071  1.00  0.00     0.150 C 
ATOM     11  C   UNL     1      26.970  23.044 -12.249  1.00  0.00     0.174 C 
ATOM     12  O   UNL     1      25.206  21.794 -11.109  1.00  0.00    -0.344 OA
ATOM     13  C   UNL     1      27.490  23.528 -10.887  1.00  0.00     0.179 C 
ATOM     14  C   UNL     1      26.368  23.555  -9.849  1.00  0.00     0.202 C 
ATOM     15  C   UNL     1      25.632  21.208 -13.374  1.00  0.00     0.041 C 
BRANCH  11  16
ATOM     16  O   UNL     1      28.073  22.952 -13.174  1.00  0.00    -0.388 OA
ATOM     17  H   UNL     1      28.112  23.818 -13.623  1.00  0.00     0.211 HD
ENDBRANCH  11  16
BRANCH  13  18
ATOM     18  O   UNL     1      28.027  24.857 -11.020  1.00  0.00    -0.387 OA
ATOM     19  H   UNL     1      27.788  25.322 -10.193  1.00  0.00     0.211 HD
ENDBRANCH  13  18
BRANCH  14  20
ATOM     20  O   UNL     1      25.449  24.610 -10.181  1.00  0.00    -0.385 OA
ATOM     21  H   UNL     1      24.813  24.197 -10.802  1.00  0.00     0.211 HD
ENDBRANCH  14  20
ENDBRANCH   8   9
ENDBRANCH   7   8
ENDBRANCH   1   7
BRANCH   2  22
ATOM     22  O   UNL     1      25.495  18.723 -10.603  1.00  0.00    -0.387 OA
ATOM     23  H   UNL     1      24.599  19.053 -10.821  1.00  0.00     0.211 HD
ENDBRANCH   2  22
BRANCH   3  24
ATOM     24  O   UNL     1      24.836  16.003 -10.134  1.00  0.00    -0.387 OA
ATOM     25  H   UNL     1      25.325  15.814 -10.961  1.00  0.00     0.211 HD
ENDBRANCH   3  24
BRANCH   5  26
ATOM     26  O   UNL     1      26.560  16.435  -5.675  1.00  0.00    -0.347 OA
BRANCH  26  27
ATOM     27  C   UNL     1      27.759  16.483  -4.893  1.00  0.00     0.200 C 
BRANCH  27  28
ATOM     28  C   UNL     1      28.585  15.179  -4.839  1.00  0.00     0.170 C 
BRANCH  28  29
ATOM     29  C   UNL     1      30.018  15.254  -4.342  1.00  0.00    -0.013 A 
ATOM     30  C   UNL     1      31.022  15.625  -5.258  1.00  0.00     0.056 A 
ATOM     31  C   UNL     1      30.402  14.941  -3.027  1.00  0.00     0.010 A 
ATOM     32  C   UNL     1      32.350  15.712  -4.854  1.00  0.00     0.157 A 
ATOM     33  C   UNL     1      31.743  15.010  -2.632  1.00  0.00     0.050 A 
ATOM     34  C   UNL     1      32.706  15.397  -3.549  1.00  0.00     0.157 A 
BRANCH  32  35
ATOM     35  O   UNL     1      33.333  16.133  -5.707  1.00  0.00    -0.504 OA
ATOM     36  H   UNL     1      34.059  16.513  -5.160  1.00  0.00     0.293 HD
ENDBRANCH  32  35
BRANCH  34  37
ATOM     37  O   UNL     1      34.011  15.473  -3.157  1.00  0.00    -0.504 OA
ATOM     38  H   UNL     1      34.517  15.478  -3.994  1.00  0.00     0.293 HD
ENDBRANCH  34  37
ENDBRANCH  28  29
BRANCH  28  39
ATOM     39  O   UNL     1      28.550  14.533  -6.115  1.00  0.00    -0.386 OA
ATOM     40  H   UNL     1      28.901  13.627  -5.973  1.00  0.00     0.211 HD
ENDBRANCH  28  39
ENDBRANCH  27  28
ENDBRANCH  26  27
ENDBRANCH   5  26
BRANCH   4  41
ATOM     41  O   UNL     1      26.210  14.776  -7.943  1.00  0.00    -0.385 OA
ATOM     42  H   UNL     1      26.387  14.600  -8.889  1.00  0.00     0.211 HD
ENDBRANCH   4  41
TORSDOF 16
ENDMDL
MODEL 5
REMARK VINA RESULT:    -8.871      1.780      2.846
REMARK INTER + INTRA:         -15.838
REMARK INTER:                 -14.500
REMARK INTRA:                  -1.338
REMARK UNBOUND:                -1.004
REMARK SMILES C[C@@H]1O[C@@H](OC[C@H]2O[C@@H](OCC(O)c3ccc(O)c(O)c3)[C@H](O)[C@@H](O)[C@@H]2O)[C@H](O)[C@H](O)[C@H]1O
REMARK SMILES IDX 7 1 26 2 24 3 22 4 9 5 8 6 6 7 5 8 4 9 2 10 32 11 3 12 30 13
REMARK SMILES IDX 28 14 1 15 33 16 31 18 29 20 27 22 25 24 10 26 11 27 12 28
REMARK SMILES IDX 14 29 21 30 15 31 19 32 16 33 17 34 20 35 18 37 13 39 23 41
REMARK H PARENT 33 17 31 19 29 21 27 23 25 25 20 36 18 38 13 40 23 42
ROOT
ATOM      1  C   UNL     1      26.108  19.525  -9.753  1.00  0.00     0.178 C 
ATOM      2  C   UNL     1      25.032  18.529 -10.210  1.00  0.00     0.177 C 
ATOM      3  C   UNL     1      25.691  17.244 -10.707  1.00  0.00     0.179 C 
ATOM      4  C   UNL     1      26.637  16.690  -9.649  1.00  0.00     0.202 C 
ATOM      5  C   UNL     1      27.645  17.779  -9.233  1.00  0.00     0.282 C 
ATOM      6  O   UNL     1      26.951  18.928  -8.743  1.00  0.00    -0.341 OA
ENDROOT
BRANCH   1   7
ATOM      7  C   UNL     1      25.459  20.793  -9.176  1.00  0.00     0.198 C 
BRANCH   7   8
ATOM      8  O   UNL     1      25.054  21.643 -10.256  1.00  0.00    -0.347 OA
BRANCH   8   9
ATOM      9  C   UNL     1      24.920  23.013  -9.871  1.00  0.00     0.281 C 
ATOM     10  C   UNL     1      24.784  23.780 -12.138  1.00  0.00     0.150 C 
ATOM     11  C   UNL     1      26.121  24.532 -12.036  1.00  0.00     0.174 C 
ATOM     12  O   UNL     1      24.144  23.704 -10.863  1.00  0.00    -0.344 OA
ATOM     13  C   UNL     1      27.013  23.845 -10.993  1.00  0.00     0.179 C 
ATOM     14  C   UNL     1      26.285  23.700  -9.656  1.00  0.00     0.202 C 
ATOM     15  C   UNL     1      23.814  24.476 -13.088  1.00  0.00     0.041 C 
BRANCH  11  16
ATOM     16  O   UNL     1      26.812  24.572 -13.301  1.00  0.00    -0.388 OA
ATOM     17  H   UNL     1      26.322  25.217 -13.848  1.00  0.00     0.211 HD
ENDBRANCH  11  16
BRANCH  13  18
ATOM     18  O   UNL     1      28.205  24.625 -10.786  1.00  0.00    -0.387 OA
ATOM     19  H   UNL     1      28.385  24.582  -9.826  1.00  0.00     0.211 HD
ENDBRANCH  13  18
BRANCH  14  20
ATOM     20  O   UNL     1      26.128  25.003  -9.066  1.00  0.00    -0.385 OA
ATOM     21  H   UNL     1      27.041  25.349  -8.987  1.00  0.00     0.211 HD
ENDBRANCH  14  20
ENDBRANCH   8   9
ENDBRANCH   7   8
ENDBRANCH   1   7
BRANCH   2  22
ATOM     22  O   UNL     1      24.229  19.078 -11.257  1.00  0.00    -0.387 OA
ATOM     23  H   UNL     1      23.860  19.908 -10.891  1.00  0.00     0.211 HD
ENDBRANCH   2  22
BRANCH   3  24
ATOM     24  O   UNL     1      24.670  16.285 -11.019  1.00  0.00    -0.387 OA
ATOM     25  H   UNL     1      25.149  15.446 -11.180  1.00  0.00     0.211 HD
ENDBRANCH   3  24
BRANCH   5  26
ATOM     26  O   UNL     1      28.444  17.199  -8.198  1.00  0.00    -0.347 OA
BRANCH  26  27
ATOM     27  C   UNL     1      27.705  16.677  -7.086  1.00  0.00     0.200 C 
BRANCH  27  28
ATOM     28  C   UNL     1      28.206  15.335  -6.509  1.00  0.00     0.170 C 
BRANCH  28  29
ATOM     29  C   UNL     1      29.330  15.365  -5.489  1.00  0.00    -0.013 A 
ATOM     30  C   UNL     1      30.630  15.669  -5.937  1.00  0.00     0.056 A 
ATOM     31  C   UNL     1      29.150  15.073  -4.126  1.00  0.00     0.010 A 
ATOM     32  C   UNL     1      31.694  15.713  -5.043  1.00  0.00     0.157 A 
ATOM     33  C   UNL     1      30.228  15.098  -3.234  1.00  0.00     0.050 A 
ATOM     34  C   UNL     1      31.492  15.419  -3.701  1.00  0.00     0.157 A 
BRANCH  32  35
ATOM     35  O   UNL     1      32.953  16.068  -5.443  1.00  0.00    -0.504 OA
ATOM     36  H   UNL     1      33.379  15.270  -5.833  1.00  0.00     0.293 HD
ENDBRANCH  32  35
BRANCH  34  37
ATOM     37  O   UNL     1      32.540  15.452  -2.827  1.00  0.00    -0.504 OA
ATOM     38  H   UNL     1      33.208  14.859  -3.225  1.00  0.00     0.293 HD
ENDBRANCH  34  37
ENDBRANCH  28  29
BRANCH  28  39
ATOM     39  O   UNL     1      28.549  14.449  -7.579  1.00  0.00    -0.386 OA
ATOM     40  H   UNL     1      28.880  15.015  -8.309  1.00  0.00     0.211 HD
ENDBRANCH  28  39
ENDBRANCH  27  28
ENDBRANCH  26  27
ENDBRANCH   5  26
BRANCH   4  41
ATOM     41  O   UNL     1      27.301  15.533 -10.182  1.00  0.00    -0.385 OA
ATOM     42  H   UNL     1      26.627  14.824 -10.173  1.00  0.00     0.211 HD
ENDBRANCH   4  41
TORSDOF 16
ENDMDL
MODEL 6
REMARK VINA RESULT:    -8.555      2.591      6.331
REMARK INTER + INTRA:         -15.309
REMARK INTER:                 -14.080
REMARK INTRA:                  -1.229
REMARK UNBOUND:                -1.004
REMARK SMILES C[C@@H]1O[C@@H](OC[C@H]2O[C@@H](OCC(O)c3ccc(O)c(O)c3)[C@H](O)[C@@H](O)[C@@H]2O)[C@H](O)[C@H](O)[C@H]1O
REMARK SMILES IDX 7 1 26 2 24 3 22 4 9 5 8 6 6 7 5 8 4 9 2 10 32 11 3 12 30 13
REMARK SMILES IDX 28 14 1 15 33 16 31 18 29 20 27 22 25 24 10 26 11 27 12 28
REMARK SMILES IDX 14 29 21 30 15 31 19 32 16 33 17 34 20 35 18 37 13 39 23 41
REMARK H PARENT 33 17 31 19 29 21 27 23 25 25 20 36 18 38 13 40 23 42
ROOT
ATOM      1  C   UNL     1      26.320  16.428  -8.952  1.00  0.00     0.178 C 
ATOM      2  C   UNL     1      26.824  17.871  -9.100  1.00  0.00     0.177 C 
ATOM      3  C   UNL     1      26.187  18.755  -8.029  1.00  0.00     0.179 C 
ATOM      4  C   UNL     1      26.415  18.159  -6.645  1.00  0.00     0.202 C 
ATOM      5  C   UNL     1      25.915  16.702  -6.619  1.00  0.00     0.282 C 
ATOM      6  O   UNL     1      26.586  15.935  -7.620  1.00  0.00    -0.341 OA
ENDROOT
BRANCH   1   7
ATOM      7  C   UNL     1      27.012  15.509  -9.972  1.00  0.00     0.198 C 
BRANCH   7   8
ATOM      8  O   UNL     1      27.467  14.327  -9.302  1.00  0.00    -0.347 OA
BRANCH   8   9
ATOM      9  C   UNL     1      26.697  13.167  -9.626  1.00  0.00     0.281 C 
ATOM     10  C   UNL     1      28.638  11.830 -10.061  1.00  0.00     0.150 C 
ATOM     11  C   UNL     1      28.302  11.704 -11.556  1.00  0.00     0.174 C 
ATOM     12  O   UNL     1      27.451  11.994  -9.283  1.00  0.00    -0.344 OA
ATOM     13  C   UNL     1      27.495  12.933 -12.001  1.00  0.00     0.179 C 
ATOM     14  C   UNL     1      26.271  13.139 -11.109  1.00  0.00     0.202 C 
ATOM     15  C   UNL     1      29.354  10.590  -9.536  1.00  0.00     0.041 C 
BRANCH  11  16
ATOM     16  O   UNL     1      29.489  11.596 -12.366  1.00  0.00    -0.388 OA
ATOM     17  H   UNL     1      29.728  10.648 -12.356  1.00  0.00     0.211 HD
ENDBRANCH  11  16
BRANCH  13  18
ATOM     18  O   UNL     1      27.052  12.754 -13.359  1.00  0.00    -0.387 OA
ATOM     19  H   UNL     1      26.093  12.949 -13.351  1.00  0.00     0.211 HD
ENDBRANCH  13  18
BRANCH  14  20
ATOM     20  O   UNL     1      25.325  12.086 -11.362  1.00  0.00    -0.385 OA
ATOM     21  H   UNL     1      24.536  12.331 -10.836  1.00  0.00     0.211 HD
ENDBRANCH  14  20
ENDBRANCH   8   9
ENDBRANCH   7   8
ENDBRANCH   1   7
BRANCH   2  22
ATOM     22  O   UNL     1      26.509  18.400 -10.389  1.00  0.00    -0.387 OA
ATOM     23  H   UNL     1      26.608  17.647 -11.008  1.00  0.00     0.211 HD
ENDBRANCH   2  22
BRANCH   3  24
ATOM     24  O   UNL     1      26.756  20.070  -8.109  1.00  0.00    -0.387 OA
ATOM     25  H   UNL     1      26.028  20.678  -7.864  1.00  0.00     0.211 HD
ENDBRANCH   3  24
BRANCH   5  26
ATOM     26  O   UNL     1      26.226  16.204  -5.315  1.00  0.00    -0.347 OA
BRANCH  26  27
ATOM     27  C   UNL     1      27.586  16.394  -4.906  1.00  0.00     0.200 C 
BRANCH  27  28
ATOM     28  C   UNL     1      28.485  15.138  -4.934  1.00  0.00     0.170 C 
BRANCH  28  29
ATOM     29  C   UNL     1      29.913  15.263  -4.435  1.00  0.00    -0.013 A 
ATOM     30  C   UNL     1      30.909  15.645  -5.355  1.00  0.00     0.056 A 
ATOM     31  C   UNL     1      30.302  14.986  -3.114  1.00  0.00     0.010 A 
ATOM     32  C   UNL     1      32.232  15.777  -4.949  1.00  0.00     0.157 A 
ATOM     33  C   UNL     1      31.638  15.100  -2.716  1.00  0.00     0.050 A 
ATOM     34  C   UNL     1      32.593  15.496  -3.638  1.00  0.00     0.157 A 
BRANCH  32  35
ATOM     35  O   UNL     1      33.207  16.209  -5.807  1.00  0.00    -0.504 OA
ATOM     36  H   UNL     1      32.763  16.682  -6.548  1.00  0.00     0.293 HD
ENDBRANCH  32  35
BRANCH  34  37
ATOM     37  O   UNL     1      33.894  15.616  -3.244  1.00  0.00    -0.504 OA
ATOM     38  H   UNL     1      33.975  16.545  -2.949  1.00  0.00     0.293 HD
ENDBRANCH  34  37
ENDBRANCH  28  29
BRANCH  28  39
ATOM     39  O   UNL     1      28.480  14.572  -6.248  1.00  0.00    -0.386 OA
ATOM     40  H   UNL     1      28.939  13.707  -6.176  1.00  0.00     0.211 HD
ENDBRANCH  28  39
ENDBRANCH  27  28
ENDBRANCH  26  27
ENDBRANCH   5  26
BRANCH   4  41
ATOM     41  O   UNL     1      25.732  18.968  -5.674  1.00  0.00    -0.385 OA
ATOM     42  H   UNL     1      25.781  18.462  -4.839  1.00  0.00     0.211 HD
ENDBRANCH   4  41
TORSDOF 16
ENDMDL
MODEL 7
REMARK VINA RESULT:    -8.315      2.424      4.172
REMARK INTER + INTRA:         -14.909
REMARK INTER:                 -13.536
REMARK INTRA:                  -1.373
REMARK UNBOUND:                -1.004
REMARK SMILES C[C@@H]1O[C@@H](OC[C@H]2O[C@@H](OCC(O)c3ccc(O)c(O)c3)[C@H](O)[C@@H](O)[C@@H]2O)[C@H](O)[C@H](O)[C@H]1O
REMARK SMILES IDX 7 1 26 2 24 3 22 4 9 5 8 6 6 7 5 8 4 9 2 10 32 11 3 12 30 13
REMARK SMILES IDX 28 14 1 15 33 16 31 18 29 20 27 22 25 24 10 26 11 27 12 28
REMARK SMILES IDX 14 29 21 30 15 31 19 32 16 33 17 34 20 35 18 37 13 39 23 41
REMARK H PARENT 33 17 31 19 29 21 27 23 25 25 20 36 18 38 13 40 23 42
ROOT
ATOM      1  C   UNL     1      25.133  19.041 -10.717  1.00  0.00     0.178 C 
ATOM      2  C   UNL     1      25.927  18.916 -12.026  1.00  0.00     0.177 C 
ATOM      3  C   UNL     1      27.041  17.885 -11.861  1.00  0.00     0.179 C 
ATOM      4  C   UNL     1      26.471  16.565 -11.355  1.00  0.00     0.202 C 
ATOM      5  C   UNL     1      25.663  16.810 -10.067  1.00  0.00     0.282 C 
ATOM      6  O   UNL     1      24.618  17.753 -10.315  1.00  0.00    -0.341 OA
ENDROOT
BRANCH   1   7
ATOM      7  C   UNL     1      23.959  20.017 -10.890  1.00  0.00     0.198 C 
BRANCH   7   8
ATOM      8  O   UNL     1      24.476  21.336 -11.101  1.00  0.00    -0.347 OA
BRANCH   8   9
ATOM      9  C   UNL     1      24.294  22.196  -9.973  1.00  0.00     0.281 C 
ATOM     10  C   UNL     1      23.740  24.091 -11.333  1.00  0.00     0.150 C 
ATOM     11  C   UNL     1      25.012  24.849 -10.916  1.00  0.00     0.174 C 
ATOM     12  O   UNL     1      23.318  23.198 -10.301  1.00  0.00    -0.344 OA
ATOM     13  C   UNL     1      26.110  23.839 -10.554  1.00  0.00     0.179 C 
ATOM     14  C   UNL     1      25.616  22.842  -9.506  1.00  0.00     0.202 C 
ATOM     15  C   UNL     1      22.580  25.041 -11.609  1.00  0.00     0.041 C 
BRANCH  11  16
ATOM     16  O   UNL     1      25.488  25.715 -11.966  1.00  0.00    -0.388 OA
ATOM     17  H   UNL     1      26.223  25.231 -12.391  1.00  0.00     0.211 HD
ENDBRANCH  11  16
BRANCH  13  18
ATOM     18  O   UNL     1      27.252  24.536 -10.024  1.00  0.00    -0.387 OA
ATOM     19  H   UNL     1      27.280  25.393 -10.495  1.00  0.00     0.211 HD
ENDBRANCH  13  18
BRANCH  14  20
ATOM     20  O   UNL     1      25.449  23.526  -8.251  1.00  0.00    -0.385 OA
ATOM     21  H   UNL     1      24.511  23.374  -8.011  1.00  0.00     0.211 HD
ENDBRANCH  14  20
ENDBRANCH   8   9
ENDBRANCH   7   8
ENDBRANCH   1   7
BRANCH   2  22
ATOM     22  O   UNL     1      26.502  20.168 -12.405  1.00  0.00    -0.387 OA
ATOM     23  H   UNL     1      27.180  20.356 -11.723  1.00  0.00     0.211 HD
ENDBRANCH   2  22
BRANCH   3  24
ATOM     24  O   UNL     1      27.696  17.697 -13.125  1.00  0.00    -0.387 OA
ATOM     25  H   UNL     1      27.646  16.734 -13.297  1.00  0.00     0.211 HD
ENDBRANCH   3  24
BRANCH   5  26
ATOM     26  O   UNL     1      25.113  15.540  -9.702  1.00  0.00    -0.347 OA
BRANCH  26  27
ATOM     27  C   UNL     1      25.322  15.163  -8.335  1.00  0.00     0.200 C 
BRANCH  27  28
ATOM     28  C   UNL     1      25.846  16.274  -7.399  1.00  0.00     0.170 C 
BRANCH  28  29
ATOM     29  C   UNL     1      27.137  16.026  -6.641  1.00  0.00    -0.013 A 
ATOM     30  C   UNL     1      28.345  16.014  -7.366  1.00  0.00     0.056 A 
ATOM     31  C   UNL     1      27.191  15.773  -5.259  1.00  0.00     0.010 A 
ATOM     32  C   UNL     1      29.556  15.795  -6.719  1.00  0.00     0.157 A 
ATOM     33  C   UNL     1      28.411  15.532  -4.617  1.00  0.00     0.050 A 
ATOM     34  C   UNL     1      29.584  15.546  -5.353  1.00  0.00     0.157 A 
BRANCH  32  35
ATOM     35  O   UNL     1      30.747  15.844  -7.390  1.00  0.00    -0.504 OA
ATOM     36  H   UNL     1      30.731  16.641  -7.969  1.00  0.00     0.293 HD
ENDBRANCH  32  35
BRANCH  34  37
ATOM     37  O   UNL     1      30.773  15.320  -4.722  1.00  0.00    -0.504 OA
ATOM     38  H   UNL     1      30.981  14.386  -4.921  1.00  0.00     0.293 HD
ENDBRANCH  34  37
ENDBRANCH  28  29
BRANCH  28  39
ATOM     39  O   UNL     1      24.815  16.659  -6.485  1.00  0.00    -0.386 OA
ATOM     40  H   UNL     1      25.180  16.517  -5.585  1.00  0.00     0.211 HD
ENDBRANCH  28  39
ENDBRANCH  27  28
ENDBRANCH  26  27
ENDBRANCH   5  26
BRANCH   4  41
ATOM     41  O   UNL     1      27.555  15.648 -11.131  1.00  0.00    -0.385 OA
ATOM     42  H   UNL     1      27.318  15.166 -10.314  1.00  0.00     0.211 HD
ENDBRANCH   4  41
TORSDOF 16
ENDMDL
MODEL 8
REMARK VINA RESULT:    -8.194      2.345      5.610
REMARK INTER + INTRA:         -14.707
REMARK INTER:                 -13.146
REMARK INTRA:                  -1.561
REMARK UNBOUND:                -1.004
REMARK SMILES C[C@@H]1O[C@@H](OC[C@H]2O[C@@H](OCC(O)c3ccc(O)c(O)c3)[C@H](O)[C@@H](O)[C@@H]2O)[C@H](O)[C@H](O)[C@H]1O
REMARK SMILES IDX 7 1 26 2 24 3 22 4 9 5 8 6 6 7 5 8 4 9 2 10 32 11 3 12 30 13
REMARK SMILES IDX 28 14 1 15 33 16 31 18 29 20 27 22 25 24 10 26 11 27 12 28
REMARK SMILES IDX 14 29 21 30 15 31 19 32 16 33 17 34 20 35 18 37 13 39 23 41
REMARK H PARENT 33 17 31 19 29 21 27 23 25 25 20 36 18 38 13 40 23 42
ROOT
ATOM      1  C   UNL     1      25.992  18.558  -9.651  1.00  0.00     0.178 C 
ATOM      2  C   UNL     1      25.960  20.083  -9.474  1.00  0.00     0.177 C 
ATOM      3  C   UNL     1      25.452  20.432  -8.077  1.00  0.00     0.179 C 
ATOM      4  C   UNL     1      26.270  19.704  -7.017  1.00  0.00     0.202 C 
ATOM      5  C   UNL     1      26.271  18.192  -7.312  1.00  0.00     0.282 C 
ATOM      6  O   UNL     1      26.797  17.947  -8.618  1.00  0.00    -0.341 OA
ENDROOT
BRANCH   1   7
ATOM      7  C   UNL     1      26.576  18.187 -11.023  1.00  0.00     0.198 C 
BRANCH   7   8
ATOM      8  O   UNL     1      26.205  16.839 -11.339  1.00  0.00    -0.347 OA
BRANCH   8   9
ATOM      9  C   UNL     1      27.286  15.914 -11.196  1.00  0.00     0.281 C 
ATOM     10  C   UNL     1      26.331  14.350 -12.742  1.00  0.00     0.150 C 
ATOM     11  C   UNL     1      26.109  13.296 -11.644  1.00  0.00     0.174 C 
ATOM     12  O   UNL     1      27.444  15.187 -12.426  1.00  0.00    -0.344 OA
ATOM     13  C   UNL     1      25.924  14.000 -10.293  1.00  0.00     0.179 C 
ATOM     14  C   UNL     1      27.085  14.953 -10.006  1.00  0.00     0.202 C 
ATOM     15  C   UNL     1      26.621  13.705 -14.093  1.00  0.00     0.041 C 
BRANCH  11  16
ATOM     16  O   UNL     1      24.954  12.475 -11.915  1.00  0.00    -0.388 OA
ATOM     17  H   UNL     1      25.218  11.565 -11.675  1.00  0.00     0.211 HD
ENDBRANCH  11  16
BRANCH  13  18
ATOM     18  O   UNL     1      25.861  13.020  -9.241  1.00  0.00    -0.387 OA
ATOM     19  H   UNL     1      24.980  13.130  -8.830  1.00  0.00     0.211 HD
ENDBRANCH  13  18
BRANCH  14  20
ATOM     20  O   UNL     1      28.271  14.180  -9.751  1.00  0.00    -0.385 OA
ATOM     21  H   UNL     1      28.424  14.274  -8.788  1.00  0.00     0.211 HD
ENDBRANCH  14  20
ENDBRANCH   8   9
ENDBRANCH   7   8
ENDBRANCH   1   7
BRANCH   2  22
ATOM     22  O   UNL     1      25.113  20.699 -10.446  1.00  0.00    -0.387 OA
ATOM     23  H   UNL     1      25.722  21.134 -11.079  1.00  0.00     0.211 HD
ENDBRANCH   2  22
BRANCH   3  24
ATOM     24  O   UNL     1      25.538  21.853  -7.889  1.00  0.00    -0.387 OA
ATOM     25  H   UNL     1      25.765  21.972  -6.944  1.00  0.00     0.211 HD
ENDBRANCH   3  24
BRANCH   5  26
ATOM     26  O   UNL     1      27.110  17.599  -6.316  1.00  0.00    -0.347 OA
BRANCH  26  27
ATOM     27  C   UNL     1      27.226  16.174  -6.396  1.00  0.00     0.200 C 
BRANCH  27  28
ATOM     28  C   UNL     1      28.648  15.622  -6.641  1.00  0.00     0.170 C 
BRANCH  28  29
ATOM     29  C   UNL     1      29.592  15.516  -5.458  1.00  0.00    -0.013 A 
ATOM     30  C   UNL     1      30.975  15.649  -5.695  1.00  0.00     0.056 A 
ATOM     31  C   UNL     1      29.167  15.258  -4.144  1.00  0.00     0.010 A 
ATOM     32  C   UNL     1      31.883  15.563  -4.645  1.00  0.00     0.157 A 
ATOM     33  C   UNL     1      30.087  15.152  -3.095  1.00  0.00     0.050 A 
ATOM     34  C   UNL     1      31.439  15.306  -3.355  1.00  0.00     0.157 A 
BRANCH  32  35
ATOM     35  O   UNL     1      33.224  15.754  -4.839  1.00  0.00    -0.504 OA
ATOM     36  H   UNL     1      33.343  16.142  -5.737  1.00  0.00     0.293 HD
ENDBRANCH  32  35
BRANCH  34  37
ATOM     37  O   UNL     1      32.332  15.212  -2.328  1.00  0.00    -0.504 OA
ATOM     38  H   UNL     1      31.889  14.640  -1.670  1.00  0.00     0.293 HD
ENDBRANCH  34  37
ENDBRANCH  28  29
BRANCH  28  39
ATOM     39  O   UNL     1      29.275  16.358  -7.696  1.00  0.00    -0.386 OA
ATOM     40  H   UNL     1      28.578  16.522  -8.368  1.00  0.00     0.211 HD
ENDBRANCH  28  39
ENDBRANCH  27  28
ENDBRANCH  26  27
ENDBRANCH   5  26
BRANCH   4  41
ATOM     41  O   UNL     1      25.712  19.989  -5.724  1.00  0.00    -0.385 OA
ATOM     42  H   UNL     1      25.503  20.944  -5.740  1.00  0.00     0.211 HD
ENDBRANCH   4  41
TORSDOF 16
ENDMDL
MODEL 9
REMARK VINA RESULT:    -8.043      3.522      7.685
REMARK INTER + INTRA:         -14.453
REMARK INTER:                 -13.566
REMARK INTRA:                  -0.887
REMARK UNBOUND:                -1.004
REMARK SMILES C[C@@H]1O[C@@H](OC[C@H]2O[C@@H](OCC(O)c3ccc(O)c(O)c3)[C@H](O)[C@@H](O)[C@@H]2O)[C@H](O)[C@H](O)[C@H]1O
REMARK SMILES IDX 7 1 26 2 24 3 22 4 9 5 8 6 6 7 5 8 4 9 2 10 32 11 3 12 30 13
REMARK SMILES IDX 28 14 1 15 33 16 31 18 29 20 27 22 25 24 10 26 11 27 12 28
REMARK SMILES IDX 14 29 21 30 15 31 19 32 16 33 17 34 20 35 18 37 13 39 23 41
REMARK H PARENT 33 17 31 19 29 21 27 23 25 25 20 36 18 38 13 40 23 42
ROOT
ATOM      1  C   UNL     1      27.295  13.876  -8.455  1.00  0.00     0.178 C 
ATOM      2  C   UNL     1      27.363  14.473  -9.868  1.00  0.00     0.177 C 
ATOM      3  C   UNL     1      27.174  15.988  -9.801  1.00  0.00     0.179 C 
ATOM      4  C   UNL     1      28.165  16.603  -8.821  1.00  0.00     0.202 C 
ATOM      5  C   UNL     1      28.043  15.905  -7.453  1.00  0.00     0.282 C 
ATOM      6  O   UNL     1      28.273  14.502  -7.595  1.00  0.00    -0.341 OA
ENDROOT
BRANCH   1   7
ATOM      7  C   UNL     1      27.562  12.363  -8.497  1.00  0.00     0.198 C 
BRANCH   7   8
ATOM      8  O   UNL     1      26.389  11.695  -8.977  1.00  0.00    -0.347 OA
BRANCH   8   9
ATOM      9  C   UNL     1      26.326  10.322  -8.584  1.00  0.00     0.281 C 
ATOM     10  C   UNL     1      27.819   9.613 -10.320  1.00  0.00     0.150 C 
ATOM     11  C   UNL     1      26.719   8.810 -11.033  1.00  0.00     0.174 C 
ATOM     12  O   UNL     1      27.569   9.683  -8.915  1.00  0.00    -0.344 OA
ATOM     13  C   UNL     1      25.352   9.440 -10.730  1.00  0.00     0.179 C 
ATOM     14  C   UNL     1      25.133   9.580  -9.223  1.00  0.00     0.202 C 
ATOM     15  C   UNL     1      29.193   8.976 -10.502  1.00  0.00     0.041 C 
BRANCH  11  16
ATOM     16  O   UNL     1      26.920   8.775 -12.461  1.00  0.00    -0.388 OA
ATOM     17  H   UNL     1      27.884   8.678 -12.587  1.00  0.00     0.211 HD
ENDBRANCH  11  16
BRANCH  13  18
ATOM     18  O   UNL     1      24.307   8.612 -11.272  1.00  0.00    -0.387 OA
ATOM     19  H   UNL     1      23.581   8.642 -10.617  1.00  0.00     0.211 HD
ENDBRANCH  13  18
BRANCH  14  20
ATOM     20  O   UNL     1      24.964   8.271  -8.652  1.00  0.00    -0.385 OA
ATOM     21  H   UNL     1      24.029   8.042  -8.834  1.00  0.00     0.211 HD
ENDBRANCH  14  20
ENDBRANCH   8   9
ENDBRANCH   7   8
ENDBRANCH   1   7
BRANCH   2  22
ATOM     22  O   UNL     1      26.357  13.915 -10.716  1.00  0.00    -0.387 OA
ATOM     23  H   UNL     1      26.734  13.949 -11.619  1.00  0.00     0.211 HD
ENDBRANCH   2  22
BRANCH   3  24
ATOM     24  O   UNL     1      27.356  16.541 -11.113  1.00  0.00    -0.387 OA
ATOM     25  H   UNL     1      27.667  15.793 -11.664  1.00  0.00     0.211 HD
ENDBRANCH   3  24
BRANCH   5  26
ATOM     26  O   UNL     1      29.047  16.494  -6.621  1.00  0.00    -0.347 OA
BRANCH  26  27
ATOM     27  C   UNL     1      29.974  15.565  -6.046  1.00  0.00     0.200 C 
BRANCH  27  28
ATOM     28  C   UNL     1      30.099  15.598  -4.507  1.00  0.00     0.170 C 
BRANCH  28  29
ATOM     29  C   UNL     1      31.423  15.193  -3.883  1.00  0.00    -0.013 A 
ATOM     30  C   UNL     1      32.609  15.512  -4.573  1.00  0.00     0.056 A 
ATOM     31  C   UNL     1      31.528  14.488  -2.672  1.00  0.00     0.010 A 
ATOM     32  C   UNL     1      33.848  15.167  -4.044  1.00  0.00     0.157 A 
ATOM     33  C   UNL     1      32.777  14.125  -2.155  1.00  0.00     0.050 A 
ATOM     34  C   UNL     1      33.928  14.469  -2.846  1.00  0.00     0.157 A 
BRANCH  32  35
ATOM     35  O   UNL     1      35.016  15.522  -4.661  1.00  0.00    -0.504 OA
ATOM     36  H   UNL     1      35.708  14.878  -4.383  1.00  0.00     0.293 HD
ENDBRANCH  32  35
BRANCH  34  37
ATOM     37  O   UNL     1      35.144  14.122  -2.333  1.00  0.00    -0.504 OA
ATOM     38  H   UNL     1      35.171  13.148  -2.407  1.00  0.00     0.293 HD
ENDBRANCH  34  37
ENDBRANCH  28  29
BRANCH  28  39
ATOM     39  O   UNL     1      29.037  14.839  -3.921  1.00  0.00    -0.386 OA
ATOM     40  H   UNL     1      28.222  15.086  -4.409  1.00  0.00     0.211 HD
ENDBRANCH  28  39
ENDBRANCH  27  28
ENDBRANCH  26  27
ENDBRANCH   5  26
BRANCH   4  41
ATOM     41  O   UNL     1      27.903  18.012  -8.719  1.00  0.00    -0.385 OA
ATOM     42  H   UNL     1      27.626  18.286  -9.616  1.00  0.00     0.211 HD
ENDBRANCH   4  41
TORSDOF 16
ENDMDL
