MODEL 1
REMARK VINA RESULT:    -9.014      0.000      0.000
REMARK INTER + INTRA:         -16.407
REMARK INTER:                 -15.073
REMARK INTRA:                  -1.333
REMARK UNBOUND:                -1.333
REMARK SMILES C[C@@H]1O[C@@H](OC[C@H]2O[C@@H](OCC(O)c3ccc(O)c(O)c3)[C@H](O)[C@@H](O)[C@@H]2O)[C@H](O)[C@H](O)[C@H]1O
REMARK SMILES IDX 7 1 26 2 24 3 22 4 9 5 8 6 6 7 5 8 4 9 2 10 32 11 3 12 30 13
REMARK SMILES IDX 28 14 1 15 33 16 31 18 29 20 27 22 25 24 10 26 11 27 12 28
REMARK SMILES IDX 14 29 21 30 15 31 19 32 16 33 17 34 20 35 18 37 13 39 23 41
REMARK H PARENT 33 17 31 19 29 21 27 23 25 25 20 36 18 38 13 40 23 42
ROOT
ATOM      1  C   UNL     1      26.869  17.652  -8.138  1.00  0.00     0.178 C 
ATOM      2  C   UNL     1      25.559  16.894  -8.397  1.00  0.00     0.177 C 
ATOM      3  C   UNL     1      25.866  15.497  -8.932  1.00  0.00     0.179 C 
ATOM      4  C   UNL     1      26.826  14.771  -7.997  1.00  0.00     0.202 C 
ATOM      5  C   UNL     1      28.082  15.633  -7.772  1.00  0.00     0.282 C 
ATOM      6  O   UNL     1      27.714  16.905  -7.235  1.00  0.00    -0.341 OA
ENDROOT
BRANCH   1   7
ATOM      7  C   UNL     1      26.581  19.032  -7.525  1.00  0.00     0.198 C 
BRANCH   7   8
ATOM      8  O   UNL     1      26.666  20.026  -8.554  1.00  0.00    -0.347 OA
BRANCH   8   9
ATOM      9  C   UNL     1      25.504  20.857  -8.627  1.00  0.00     0.281 C 
ATOM     10  C   UNL     1      25.296  20.594 -11.000  1.00  0.00     0.150 C 
ATOM     11  C   UNL     1      25.607  22.078 -11.261  1.00  0.00     0.174 C 
ATOM     12  O   UNL     1      24.684  20.419  -9.722  1.00  0.00    -0.344 OA
ATOM     13  C   UNL     1      26.491  22.619 -10.128  1.00  0.00     0.179 C 
ATOM     14  C   UNL     1      25.858  22.353  -8.762  1.00  0.00     0.202 C 
ATOM     15  C   UNL     1      24.338  20.026 -12.041  1.00  0.00     0.041 C 
BRANCH  11  16
ATOM     16  O   UNL     1      26.278  22.272 -12.522  1.00  0.00    -0.388 OA
ATOM     17  H   UNL     1      26.460  23.230 -12.578  1.00  0.00     0.211 HD
ENDBRANCH  11  16
BRANCH  13  18
ATOM     18  O   UNL     1      26.665  24.039 -10.287  1.00  0.00    -0.387 OA
ATOM     19  H   UNL     1      27.485  24.148 -10.808  1.00  0.00     0.211 HD
ENDBRANCH  13  18
BRANCH  14  20
ATOM     20  O   UNL     1      24.692  23.182  -8.618  1.00  0.00    -0.385 OA
ATOM     21  H   UNL     1      25.015  23.985  -8.158  1.00  0.00     0.211 HD
ENDBRANCH  14  20
ENDBRANCH   8   9
ENDBRANCH   7   8
ENDBRANCH   1   7
BRANCH   2  22
ATOM     22  O   UNL     1      24.739  17.585  -9.342  1.00  0.00    -0.387 OA
ATOM     23  H   UNL     1      25.068  17.307 -10.221  1.00  0.00     0.211 HD
ENDBRANCH   2  22
BRANCH   3  24
ATOM     24  O   UNL     1      24.637  14.764  -9.058  1.00  0.00    -0.387 OA
ATOM     25  H   UNL     1      24.057  15.332  -9.605  1.00  0.00     0.211 HD
ENDBRANCH   3  24
BRANCH   5  26
ATOM     26  O   UNL     1      28.891  14.912  -6.839  1.00  0.00    -0.347 OA
BRANCH  26  27
ATOM     27  C   UNL     1      29.955  15.670  -6.251  1.00  0.00     0.200 C 
BRANCH  27  28
ATOM     28  C   UNL     1      30.008  15.680  -4.708  1.00  0.00     0.170 C 
BRANCH  28  29
ATOM     29  C   UNL     1      31.307  15.284  -4.029  1.00  0.00    -0.013 A 
ATOM     30  C   UNL     1      32.518  15.561  -4.694  1.00  0.00     0.056 A 
ATOM     31  C   UNL     1      31.367  14.624  -2.790  1.00  0.00     0.010 A 
ATOM     32  C   UNL     1      33.736  15.222  -4.115  1.00  0.00     0.157 A 
ATOM     33  C   UNL     1      32.595  14.266  -2.222  1.00  0.00     0.050 A 
ATOM     34  C   UNL     1      33.770  14.569  -2.890  1.00  0.00     0.157 A 
BRANCH  32  35
ATOM     35  O   UNL     1      34.926  15.540  -4.709  1.00  0.00    -0.504 OA
ATOM     36  H   UNL     1      34.972  16.521  -4.780  1.00  0.00     0.293 HD
ENDBRANCH  32  35
BRANCH  34  37
ATOM     37  O   UNL     1      34.966  14.228  -2.328  1.00  0.00    -0.504 OA
ATOM     38  H   UNL     1      35.105  14.894  -1.625  1.00  0.00     0.293 HD
ENDBRANCH  34  37
ENDBRANCH  28  29
BRANCH  28  39
ATOM     39  O   UNL     1      28.931  14.898  -4.184  1.00  0.00    -0.386 OA
ATOM     40  H   UNL     1      28.794  15.203  -3.261  1.00  0.00     0.211 HD
ENDBRANCH  28  39
ENDBRANCH  27  28
ENDBRANCH  26  27
ENDBRANCH   5  26
BRANCH   4  41
ATOM     41  O   UNL     1      27.157  13.496  -8.573  1.00  0.00    -0.385 OA
ATOM     42  H   UNL     1      28.105  13.364  -8.373  1.00  0.00     0.211 HD
ENDBRANCH   4  41
TORSDOF 16
ENDMDL
MODEL 2
REMARK VINA RESULT:    -8.870      2.550      6.621
REMARK INTER + INTRA:         -16.167
REMARK INTER:                 -14.871
REMARK INTRA:                  -1.296
REMARK UNBOUND:                -1.333
REMARK SMILES C[C@@H]1O[C@@H](OC[C@H]2O[C@@H](OCC(O)c3ccc(O)c(O)c3)[C@H](O)[C@@H](O)[C@@H]2O)[C@H](O)[C@H](O)[C@H]1O
REMARK SMILES IDX 7 1 26 2 24 3 22 4 9 5 8 6 6 7 5 8 4 9 2 10 32 11 3 12 30 13
REMARK SMILES IDX 28 14 1 15 33 16 31 18 29 20 27 22 25 24 10 26 11 27 12 28
REMARK SMILES IDX 14 29 21 30 15 31 19 32 16 33 17 34 20 35 18 37 13 39 23 41
REMARK H PARENT 33 17 31 19 29 21 27 23 25 25 20 36 18 38 13 40 23 42
ROOT
ATOM      1  C   UNL     1      26.282  16.267  -8.971  1.00  0.00     0.178 C 
ATOM      2  C   UNL     1      26.844  17.676  -9.205  1.00  0.00     0.177 C 
ATOM      3  C   UNL     1      26.274  18.641  -8.167  1.00  0.00     0.179 C 
ATOM      4  C   UNL     1      26.512  18.106  -6.760  1.00  0.00     0.202 C 
ATOM      5  C   UNL     1      25.949  16.677  -6.647  1.00  0.00     0.282 C 
ATOM      6  O   UNL     1      26.560  15.830  -7.623  1.00  0.00    -0.341 OA
ENDROOT
BRANCH   1   7
ATOM      7  C   UNL     1      26.906  15.267  -9.959  1.00  0.00     0.198 C 
BRANCH   7   8
ATOM      8  O   UNL     1      26.473  13.944  -9.619  1.00  0.00    -0.347 OA
BRANCH   8   9
ATOM      9  C   UNL     1      27.493  12.959  -9.798  1.00  0.00     0.281 C 
ATOM     10  C   UNL     1      26.075  11.528 -11.098  1.00  0.00     0.150 C 
ATOM     11  C   UNL     1      26.077  10.431 -10.020  1.00  0.00     0.174 C 
ATOM     12  O   UNL     1      27.283  12.290 -11.052  1.00  0.00    -0.344 OA
ATOM     13  C   UNL     1      26.293  11.073  -8.642  1.00  0.00     0.179 C 
ATOM     14  C   UNL     1      27.546  11.948  -8.633  1.00  0.00     0.202 C 
ATOM     15  C   UNL     1      25.965  10.941 -12.501  1.00  0.00     0.041 C 
BRANCH  11  16
ATOM     16  O   UNL     1      24.843   9.686 -10.010  1.00  0.00    -0.388 OA
ATOM     17  H   UNL     1      24.188  10.257 -10.456  1.00  0.00     0.211 HD
ENDBRANCH  11  16
BRANCH  13  18
ATOM     18  O   UNL     1      26.442  10.044  -7.647  1.00  0.00    -0.387 OA
ATOM     19  H   UNL     1      25.712   9.413  -7.809  1.00  0.00     0.211 HD
ENDBRANCH  13  18
BRANCH  14  20
ATOM     20  O   UNL     1      28.707  11.104  -8.725  1.00  0.00    -0.385 OA
ATOM     21  H   UNL     1      28.730  10.622  -7.872  1.00  0.00     0.211 HD
ENDBRANCH  14  20
ENDBRANCH   8   9
ENDBRANCH   7   8
ENDBRANCH   1   7
BRANCH   2  22
ATOM     22  O   UNL     1      26.520  18.153 -10.513  1.00  0.00    -0.387 OA
ATOM     23  H   UNL     1      26.694  19.117 -10.486  1.00  0.00     0.211 HD
ENDBRANCH   2  22
BRANCH   3  24
ATOM     24  O   UNL     1      26.898  19.924  -8.328  1.00  0.00    -0.387 OA
ATOM     25  H   UNL     1      26.451  20.330  -9.099  1.00  0.00     0.211 HD
ENDBRANCH   3  24
BRANCH   5  26
ATOM     26  O   UNL     1      26.272  16.231  -5.326  1.00  0.00    -0.347 OA
BRANCH  26  27
ATOM     27  C   UNL     1      27.642  16.412  -4.948  1.00  0.00     0.200 C 
BRANCH  27  28
ATOM     28  C   UNL     1      28.512  15.136  -4.924  1.00  0.00     0.170 C 
BRANCH  28  29
ATOM     29  C   UNL     1      29.930  15.242  -4.393  1.00  0.00    -0.013 A 
ATOM     30  C   UNL     1      30.950  15.624  -5.286  1.00  0.00     0.056 A 
ATOM     31  C   UNL     1      30.287  14.946  -3.066  1.00  0.00     0.010 A 
ATOM     32  C   UNL     1      32.265  15.739  -4.850  1.00  0.00     0.157 A 
ATOM     33  C   UNL     1      31.616  15.043  -2.638  1.00  0.00     0.050 A 
ATOM     34  C   UNL     1      32.595  15.440  -3.535  1.00  0.00     0.157 A 
BRANCH  32  35
ATOM     35  O   UNL     1      33.263  16.170  -5.682  1.00  0.00    -0.504 OA
ATOM     36  H   UNL     1      33.872  16.732  -5.149  1.00  0.00     0.293 HD
ENDBRANCH  32  35
BRANCH  34  37
ATOM     37  O   UNL     1      33.888  15.543  -3.111  1.00  0.00    -0.504 OA
ATOM     38  H   UNL     1      34.059  14.701  -2.643  1.00  0.00     0.293 HD
ENDBRANCH  34  37
ENDBRANCH  28  29
BRANCH  28  39
ATOM     39  O   UNL     1      28.527  14.539  -6.224  1.00  0.00    -0.386 OA
ATOM     40  H   UNL     1      28.963  15.187  -6.819  1.00  0.00     0.211 HD
ENDBRANCH  28  39
ENDBRANCH  27  28
ENDBRANCH  26  27
ENDBRANCH   5  26
BRANCH   4  41
ATOM     41  O   UNL     1      25.890  18.993  -5.816  1.00  0.00    -0.385 OA
ATOM     42  H   UNL     1      24.942  18.996  -6.053  1.00  0.00     0.211 HD
ENDBRANCH   4  41
TORSDOF 16
ENDMDL
MODEL 3
REMARK VINA RESULT:    -8.586      2.580      6.610
REMARK INTER + INTRA:         -15.692
REMARK INTER:                 -14.267
REMARK INTRA:                  -1.424
REMARK UNBOUND:                -1.333
REMARK SMILES C[C@@H]1O[C@@H](OC[C@H]2O[C@@H](OCC(O)c3ccc(O)c(O)c3)[C@H](O)[C@@H](O)[C@@H]2O)[C@H](O)[C@H](O)[C@H]1O
REMARK SMILES IDX 7 1 26 2 24 3 22 4 9 5 8 6 6 7 5 8 4 9 2 10 32 11 3 12 30 13
REMARK SMILES IDX 28 14 1 15 33 16 31 18 29 20 27 22 25 24 10 26 11 27 12 28
REMARK SMILES IDX 14 29 21 30 15 31 19 32 16 33 17 34 20 35 18 37 13 39 23 41
REMARK H PARENT 33 17 31 19 29 21 27 23 25 25 20 36 18 38 13 40 23 42
ROOT
ATOM      1  C   UNL     1      26.335  16.356  -9.391  1.00  0.00     0.178 C 
ATOM      2  C   UNL     1      26.908  17.772  -9.553  1.00  0.00     0.177 C 
ATOM      3  C   UNL     1      26.292  18.703  -8.510  1.00  0.00     0.179 C 
ATOM      4  C   UNL     1      26.464  18.122  -7.112  1.00  0.00     0.202 C 
ATOM      5  C   UNL     1      25.896  16.690  -7.072  1.00  0.00     0.282 C 
ATOM      6  O   UNL     1      26.551  15.875  -8.046  1.00  0.00    -0.341 OA
ENDROOT
BRANCH   1   7
ATOM      7  C   UNL     1      27.003  15.389 -10.381  1.00  0.00     0.198 C 
BRANCH   7   8
ATOM      8  O   UNL     1      27.340  14.178  -9.694  1.00  0.00    -0.347 OA
BRANCH   8   9
ATOM      9  C   UNL     1      26.737  13.018 -10.275  1.00  0.00     0.281 C 
ATOM     10  C   UNL     1      27.779  11.526  -8.714  1.00  0.00     0.150 C 
ATOM     11  C   UNL     1      28.630  10.864  -9.811  1.00  0.00     0.174 C 
ATOM     12  O   UNL     1      26.554  12.025  -9.253  1.00  0.00    -0.344 OA
ATOM     13  C   UNL     1      28.876  11.872 -10.943  1.00  0.00     0.179 C 
ATOM     14  C   UNL     1      27.559  12.456 -11.454  1.00  0.00     0.202 C 
ATOM     15  C   UNL     1      27.417  10.541  -7.608  1.00  0.00     0.041 C 
BRANCH  11  16
ATOM     16  O   UNL     1      29.898  10.403  -9.300  1.00  0.00    -0.388 OA
ATOM     17  H   UNL     1      29.884   9.432  -9.401  1.00  0.00     0.211 HD
ENDBRANCH  11  16
BRANCH  13  18
ATOM     18  O   UNL     1      29.545  11.218 -12.036  1.00  0.00    -0.387 OA
ATOM     19  H   UNL     1      29.656  11.903 -12.725  1.00  0.00     0.211 HD
ENDBRANCH  13  18
BRANCH  14  20
ATOM     20  O   UNL     1      26.833  11.430 -12.154  1.00  0.00    -0.385 OA
ATOM     21  H   UNL     1      26.355  11.907 -12.864  1.00  0.00     0.211 HD
ENDBRANCH  14  20
ENDBRANCH   8   9
ENDBRANCH   7   8
ENDBRANCH   1   7
BRANCH   2  22
ATOM     22  O   UNL     1      26.644  18.292 -10.857  1.00  0.00    -0.387 OA
ATOM     23  H   UNL     1      27.234  19.069 -10.949  1.00  0.00     0.211 HD
ENDBRANCH   2  22
BRANCH   3  24
ATOM     24  O   UNL     1      26.923  19.989  -8.600  1.00  0.00    -0.387 OA
ATOM     25  H   UNL     1      27.483  19.942  -9.402  1.00  0.00     0.211 HD
ENDBRANCH   3  24
BRANCH   5  26
ATOM     26  O   UNL     1      26.158  16.201  -5.753  1.00  0.00    -0.347 OA
BRANCH  26  27
ATOM     27  C   UNL     1      27.505  16.381  -5.300  1.00  0.00     0.200 C 
BRANCH  27  28
ATOM     28  C   UNL     1      28.356  15.099  -5.176  1.00  0.00     0.170 C 
BRANCH  28  29
ATOM     29  C   UNL     1      29.749  15.213  -4.584  1.00  0.00    -0.013 A 
ATOM     30  C   UNL     1      30.799  15.628  -5.426  1.00  0.00     0.056 A 
ATOM     31  C   UNL     1      30.056  14.895  -3.250  1.00  0.00     0.010 A 
ATOM     32  C   UNL     1      32.093  15.753  -4.933  1.00  0.00     0.157 A 
ATOM     33  C   UNL     1      31.364  15.001  -2.765  1.00  0.00     0.050 A 
ATOM     34  C   UNL     1      32.373  15.431  -3.612  1.00  0.00     0.157 A 
BRANCH  32  35
ATOM     35  O   UNL     1      33.117  16.216  -5.714  1.00  0.00    -0.504 OA
ATOM     36  H   UNL     1      33.434  15.464  -6.266  1.00  0.00     0.293 HD
ENDBRANCH  32  35
BRANCH  34  37
ATOM     37  O   UNL     1      33.646  15.543  -3.132  1.00  0.00    -0.504 OA
ATOM     38  H   UNL     1      33.558  15.392  -2.170  1.00  0.00     0.293 HD
ENDBRANCH  34  37
ENDBRANCH  28  29
BRANCH  28  39
ATOM     39  O   UNL     1      28.423  14.439  -6.443  1.00  0.00    -0.386 OA
ATOM     40  H   UNL     1      27.612  13.890  -6.510  1.00  0.00     0.211 HD
ENDBRANCH  28  39
ENDBRANCH  27  28
ENDBRANCH  26  27
ENDBRANCH   5  26
BRANCH   4  41
ATOM     41  O   UNL     1      25.800  18.979  -6.169  1.00  0.00    -0.385 OA
ATOM     42  H   UNL     1      24.917  19.147  -6.553  1.00  0.00     0.211 HD
ENDBRANCH   4  41
TORSDOF 16
ENDMDL
MODEL 4
REMARK VINA RESULT:    -8.470      1.980      2.969
REMARK INTER + INTRA:         -15.499
REMARK INTER:                 -14.156
REMARK INTRA:                  -1.342
REMARK UNBOUND:                -1.333
REMARK SMILES C[C@@H]1O[C@@H](OC[C@H]2O[C@@H](OCC(O)c3ccc(O)c(O)c3)[C@H](O)[C@@H](O)[C@@H]2O)[C@H](O)[C@H](O)[C@H]1O
REMARK SMILES IDX 7 1 26 2 24 3 22 4 9 5 8 6 6 7 5 8 4 9 2 10 32 11 3 12 30 13
REMARK SMILES IDX 28 14 1 15 33 16 31 18 29 20 27 22 25 24 10 26 11 27 12 28
REMARK SMILES IDX 14 29 21 30 15 31 19 32 16 33 17 34 20 35 18 37 13 39 23 41
REMARK H PARENT 33 17 31 19 29 21 27 23 25 25 20 36 18 38 13 40 23 42
ROOT
ATOM      1  C   UNL     1      25.785  19.683  -9.922  1.00  0.00     0.178 C 
ATOM      2  C   UNL     1      24.869  18.609 -10.528  1.00  0.00     0.177 C 
ATOM      3  C   UNL     1      25.712  17.465 -11.089  1.00  0.00     0.179 C 
ATOM      4  C   UNL     1      26.664  16.936 -10.023  1.00  0.00     0.202 C 
ATOM      5  C   UNL     1      27.501  18.097  -9.454  1.00  0.00     0.282 C 
ATOM      6  O   UNL     1      26.643  19.104  -8.915  1.00  0.00    -0.341 OA
ENDROOT
BRANCH   1   7
ATOM      7  C   UNL     1      24.950  20.804  -9.283  1.00  0.00     0.198 C 
BRANCH   7   8
ATOM      8  O   UNL     1      24.587  21.750 -10.296  1.00  0.00    -0.347 OA
BRANCH   8   9
ATOM      9  C   UNL     1      24.647  23.105  -9.843  1.00  0.00     0.281 C 
ATOM     10  C   UNL     1      24.538  23.997 -12.066  1.00  0.00     0.150 C 
ATOM     11  C   UNL     1      25.965  24.563 -11.983  1.00  0.00     0.174 C 
ATOM     12  O   UNL     1      23.936  23.940 -10.772  1.00  0.00    -0.344 OA
ATOM     13  C   UNL     1      26.793  23.714 -11.007  1.00  0.00     0.179 C 
ATOM     14  C   UNL     1      26.097  23.598  -9.651  1.00  0.00     0.202 C 
ATOM     15  C   UNL     1      23.638  24.859 -12.944  1.00  0.00     0.041 C 
BRANCH  11  16
ATOM     16  O   UNL     1      26.613  24.576 -13.271  1.00  0.00    -0.388 OA
ATOM     17  H   UNL     1      26.710  23.638 -13.525  1.00  0.00     0.211 HD
ENDBRANCH  11  16
BRANCH  13  18
ATOM     18  O   UNL     1      28.083  24.322 -10.812  1.00  0.00    -0.387 OA
ATOM     19  H   UNL     1      27.986  24.901 -10.030  1.00  0.00     0.211 HD
ENDBRANCH  13  18
BRANCH  14  20
ATOM     20  O   UNL     1      26.132  24.878  -8.997  1.00  0.00    -0.385 OA
ATOM     21  H   UNL     1      26.827  24.787  -8.313  1.00  0.00     0.211 HD
ENDBRANCH  14  20
ENDBRANCH   8   9
ENDBRANCH   7   8
ENDBRANCH   1   7
BRANCH   2  22
ATOM     22  O   UNL     1      24.059  19.149 -11.575  1.00  0.00    -0.387 OA
ATOM     23  H   UNL     1      24.580  19.022 -12.395  1.00  0.00     0.211 HD
ENDBRANCH   2  22
BRANCH   3  24
ATOM     24  O   UNL     1      24.838  16.421 -11.544  1.00  0.00    -0.387 OA
ATOM     25  H   UNL     1      24.734  15.822 -10.776  1.00  0.00     0.211 HD
ENDBRANCH   3  24
BRANCH   5  26
ATOM     26  O   UNL     1      28.313  17.527  -8.423  1.00  0.00    -0.347 OA
BRANCH  26  27
ATOM     27  C   UNL     1      27.604  16.718  -7.476  1.00  0.00     0.200 C 
BRANCH  27  28
ATOM     28  C   UNL     1      28.291  15.398  -7.064  1.00  0.00     0.170 C 
BRANCH  28  29
ATOM     29  C   UNL     1      29.196  15.407  -5.846  1.00  0.00    -0.013 A 
ATOM     30  C   UNL     1      30.568  15.662  -6.037  1.00  0.00     0.056 A 
ATOM     31  C   UNL     1      28.747  15.140  -4.541  1.00  0.00     0.010 A 
ATOM     32  C   UNL     1      31.440  15.685  -4.954  1.00  0.00     0.157 A 
ATOM     33  C   UNL     1      29.632  15.143  -3.458  1.00  0.00     0.050 A 
ATOM     34  C   UNL     1      30.973  15.417  -3.674  1.00  0.00     0.157 A 
BRANCH  32  35
ATOM     35  O   UNL     1      32.764  15.994  -5.105  1.00  0.00    -0.504 OA
ATOM     36  H   UNL     1      33.202  15.227  -5.541  1.00  0.00     0.293 HD
ENDBRANCH  32  35
BRANCH  34  37
ATOM     37  O   UNL     1      31.833  15.429  -2.614  1.00  0.00    -0.504 OA
ATOM     38  H   UNL     1      32.133  14.501  -2.533  1.00  0.00     0.293 HD
ENDBRANCH  34  37
ENDBRANCH  28  29
BRANCH  28  39
ATOM     39  O   UNL     1      28.993  14.850  -8.184  1.00  0.00    -0.386 OA
ATOM     40  H   UNL     1      28.542  15.194  -8.985  1.00  0.00     0.211 HD
ENDBRANCH  28  39
ENDBRANCH  27  28
ENDBRANCH  26  27
ENDBRANCH   5  26
BRANCH   4  41
ATOM     41  O   UNL     1      27.497  15.922 -10.608  1.00  0.00    -0.385 OA
ATOM     42  H   UNL     1      27.571  15.226  -9.925  1.00  0.00     0.211 HD
ENDBRANCH   4  41
TORSDOF 16
ENDMDL
MODEL 5
REMARK VINA RESULT:    -8.438      3.706      7.468
REMARK INTER + INTRA:         -15.445
REMARK INTER:                 -14.450
REMARK INTRA:                  -0.995
REMARK UNBOUND:                -1.333
REMARK SMILES C[C@@H]1O[C@@H](OC[C@H]2O[C@@H](OCC(O)c3ccc(O)c(O)c3)[C@H](O)[C@@H](O)[C@@H]2O)[C@H](O)[C@H](O)[C@H]1O
REMARK SMILES IDX 7 1 26 2 24 3 22 4 9 5 8 6 6 7 5 8 4 9 2 10 32 11 3 12 30 13
REMARK SMILES IDX 28 14 1 15 33 16 31 18 29 20 27 22 25 24 10 26 11 27 12 28
REMARK SMILES IDX 14 29 21 30 15 31 19 32 16 33 17 34 20 35 18 37 13 39 23 41
REMARK H PARENT 33 17 31 19 29 21 27 23 25 25 20 36 18 38 13 40 23 42
ROOT
ATOM      1  C   UNL     1      27.096  14.301  -8.263  1.00  0.00     0.178 C 
ATOM      2  C   UNL     1      25.979  15.127  -8.916  1.00  0.00     0.177 C 
ATOM      3  C   UNL     1      25.122  15.785  -7.837  1.00  0.00     0.179 C 
ATOM      4  C   UNL     1      25.997  16.579  -6.875  1.00  0.00     0.202 C 
ATOM      5  C   UNL     1      27.105  15.670  -6.312  1.00  0.00     0.282 C 
ATOM      6  O   UNL     1      27.885  15.128  -7.379  1.00  0.00    -0.341 OA
ENDROOT
BRANCH   1   7
ATOM      7  C   UNL     1      28.016  13.696  -9.335  1.00  0.00     0.198 C 
BRANCH   7   8
ATOM      8  O   UNL     1      28.523  12.442  -8.861  1.00  0.00    -0.347 OA
BRANCH   8   9
ATOM      9  C   UNL     1      28.569  11.437  -9.877  1.00  0.00     0.281 C 
ATOM     10  C   UNL     1      26.824  10.141  -8.866  1.00  0.00     0.150 C 
ATOM     11  C   UNL     1      27.778   8.978  -8.548  1.00  0.00     0.174 C 
ATOM     12  O   UNL     1      27.262  10.858 -10.021  1.00  0.00    -0.344 OA
ATOM     13  C   UNL     1      29.203   9.521  -8.373  1.00  0.00     0.179 C 
ATOM     14  C   UNL     1      29.627  10.352  -9.585  1.00  0.00     0.202 C 
ATOM     15  C   UNL     1      25.409   9.650  -9.150  1.00  0.00     0.041 C 
BRANCH  11  16
ATOM     16  O   UNL     1      27.387   8.274  -7.352  1.00  0.00    -0.388 OA
ATOM     17  H   UNL     1      26.410   8.289  -7.346  1.00  0.00     0.211 HD
ENDBRANCH  11  16
BRANCH  13  18
ATOM     18  O   UNL     1      30.124   8.425  -8.221  1.00  0.00    -0.387 OA
ATOM     19  H   UNL     1      30.999   8.835  -8.071  1.00  0.00     0.211 HD
ENDBRANCH  13  18
BRANCH  14  20
ATOM     20  O   UNL     1      29.805   9.477 -10.712  1.00  0.00    -0.385 OA
ATOM     21  H   UNL     1      28.909   9.127 -10.896  1.00  0.00     0.211 HD
ENDBRANCH  14  20
ENDBRANCH   8   9
ENDBRANCH   7   8
ENDBRANCH   1   7
BRANCH   2  22
ATOM     22  O   UNL     1      25.145  14.312  -9.742  1.00  0.00    -0.387 OA
ATOM     23  H   UNL     1      25.760  13.721 -10.225  1.00  0.00     0.211 HD
ENDBRANCH   2  22
BRANCH   3  24
ATOM     24  O   UNL     1      24.158  16.645  -8.464  1.00  0.00    -0.387 OA
ATOM     25  H   UNL     1      23.632  17.019  -7.728  1.00  0.00     0.211 HD
ENDBRANCH   3  24
BRANCH   5  26
ATOM     26  O   UNL     1      27.913  16.506  -5.478  1.00  0.00    -0.347 OA
BRANCH  26  27
ATOM     27  C   UNL     1      28.775  15.804  -4.574  1.00  0.00     0.200 C 
BRANCH  27  28
ATOM     28  C   UNL     1      30.108  15.296  -5.166  1.00  0.00     0.170 C 
BRANCH  28  29
ATOM     29  C   UNL     1      31.307  15.180  -4.243  1.00  0.00    -0.013 A 
ATOM     30  C   UNL     1      32.590  15.392  -4.787  1.00  0.00     0.056 A 
ATOM     31  C   UNL     1      31.212  14.838  -2.884  1.00  0.00     0.010 A 
ATOM     32  C   UNL     1      33.721  15.300  -3.984  1.00  0.00     0.157 A 
ATOM     33  C   UNL     1      32.356  14.726  -2.085  1.00  0.00     0.050 A 
ATOM     34  C   UNL     1      33.603  14.959  -2.643  1.00  0.00     0.157 A 
BRANCH  32  35
ATOM     35  O   UNL     1      34.971  15.565  -4.473  1.00  0.00    -0.504 OA
ATOM     36  H   UNL     1      35.599  14.940  -4.043  1.00  0.00     0.293 HD
ENDBRANCH  32  35
BRANCH  34  37
ATOM     37  O   UNL     1      34.715  14.859  -1.860  1.00  0.00    -0.504 OA
ATOM     38  H   UNL     1      35.068  15.771  -1.819  1.00  0.00     0.293 HD
ENDBRANCH  34  37
ENDBRANCH  28  29
BRANCH  28  39
ATOM     39  O   UNL     1      30.455  16.078  -6.313  1.00  0.00    -0.386 OA
ATOM     40  H   UNL     1      31.245  16.603  -6.058  1.00  0.00     0.211 HD
ENDBRANCH  28  39
ENDBRANCH  27  28
ENDBRANCH  26  27
ENDBRANCH   5  26
BRANCH   4  41
ATOM     41  O   UNL     1      25.169  17.112  -5.828  1.00  0.00    -0.385 OA
ATOM     42  H   UNL     1      24.309  16.659  -5.926  1.00  0.00     0.211 HD
ENDBRANCH   4  41
TORSDOF 16
ENDMDL
MODEL 6
REMARK VINA RESULT:    -8.366      1.266      2.180
REMARK INTER + INTRA:         -15.324
REMARK INTER:                 -14.768
REMARK INTRA:                  -0.556
REMARK UNBOUND:                -1.333
REMARK SMILES C[C@@H]1O[C@@H](OC[C@H]2O[C@@H](OCC(O)c3ccc(O)c(O)c3)[C@H](O)[C@@H](O)[C@@H]2O)[C@H](O)[C@H](O)[C@H]1O
REMARK SMILES IDX 7 1 26 2 24 3 22 4 9 5 8 6 6 7 5 8 4 9 2 10 32 11 3 12 30 13
REMARK SMILES IDX 28 14 1 15 33 16 31 18 29 20 27 22 25 24 10 26 11 27 12 28
REMARK SMILES IDX 14 29 21 30 15 31 19 32 16 33 17 34 20 35 18 37 13 39 23 41
REMARK H PARENT 33 17 31 19 29 21 27 23 25 25 20 36 18 38 13 40 23 42
ROOT
ATOM      1  C   UNL     1      27.071  17.930  -8.896  1.00  0.00     0.178 C 
ATOM      2  C   UNL     1      26.487  16.901  -9.875  1.00  0.00     0.177 C 
ATOM      3  C   UNL     1      27.426  15.700  -9.985  1.00  0.00     0.179 C 
ATOM      4  C   UNL     1      27.731  15.136  -8.603  1.00  0.00     0.202 C 
ATOM      5  C   UNL     1      28.269  16.257  -7.693  1.00  0.00     0.282 C 
ATOM      6  O   UNL     1      27.318  17.320  -7.610  1.00  0.00    -0.341 OA
ENDROOT
BRANCH   1   7
ATOM      7  C   UNL     1      26.102  19.109  -8.712  1.00  0.00     0.198 C 
BRANCH   7   8
ATOM      8  O   UNL     1      26.809  20.334  -8.937  1.00  0.00    -0.347 OA
BRANCH   8   9
ATOM      9  C   UNL     1      26.717  20.794 -10.288  1.00  0.00     0.281 C 
ATOM     10  C   UNL     1      26.112  23.019  -9.634  1.00  0.00     0.150 C 
ATOM     11  C   UNL     1      24.706  22.889 -10.242  1.00  0.00     0.174 C 
ATOM     12  O   UNL     1      27.046  22.192 -10.329  1.00  0.00    -0.344 OA
ATOM     13  C   UNL     1      24.279  21.414 -10.228  1.00  0.00     0.179 C 
ATOM     14  C   UNL     1      25.328  20.532 -10.906  1.00  0.00     0.202 C 
ATOM     15  C   UNL     1      26.632  24.451  -9.713  1.00  0.00     0.041 C 
BRANCH  11  16
ATOM     16  O   UNL     1      23.734  23.673  -9.520  1.00  0.00    -0.388 OA
ATOM     17  H   UNL     1      23.693  23.281  -8.626  1.00  0.00     0.211 HD
ENDBRANCH  11  16
BRANCH  13  18
ATOM     18  O   UNL     1      23.030  21.265 -10.926  1.00  0.00    -0.387 OA
ATOM     19  H   UNL     1      22.570  22.123 -10.830  1.00  0.00     0.211 HD
ENDBRANCH  13  18
BRANCH  14  20
ATOM     20  O   UNL     1      25.324  20.803 -12.318  1.00  0.00    -0.385 OA
ATOM     21  H   UNL     1      24.377  20.781 -12.571  1.00  0.00     0.211 HD
ENDBRANCH  14  20
ENDBRANCH   8   9
ENDBRANCH   7   8
ENDBRANCH   1   7
BRANCH   2  22
ATOM     22  O   UNL     1      26.300  17.468 -11.173  1.00  0.00    -0.387 OA
ATOM     23  H   UNL     1      26.577  16.769 -11.801  1.00  0.00     0.211 HD
ENDBRANCH   2  22
BRANCH   3  24
ATOM     24  O   UNL     1      26.810  14.700 -10.811  1.00  0.00    -0.387 OA
ATOM     25  H   UNL     1      25.938  15.073 -11.055  1.00  0.00     0.211 HD
ENDBRANCH   3  24
BRANCH   5  26
ATOM     26  O   UNL     1      28.463  15.659  -6.408  1.00  0.00    -0.347 OA
BRANCH  26  27
ATOM     27  C   UNL     1      29.822  15.630  -5.956  1.00  0.00     0.200 C 
BRANCH  27  28
ATOM     28  C   UNL     1      30.027  15.646  -4.425  1.00  0.00     0.170 C 
BRANCH  28  29
ATOM     29  C   UNL     1      31.379  15.227  -3.875  1.00  0.00    -0.013 A 
ATOM     30  C   UNL     1      32.528  15.524  -4.634  1.00  0.00     0.056 A 
ATOM     31  C   UNL     1      31.544  14.529  -2.667  1.00  0.00     0.010 A 
ATOM     32  C   UNL     1      33.790  15.165  -4.174  1.00  0.00     0.157 A 
ATOM     33  C   UNL     1      32.815  14.152  -2.219  1.00  0.00     0.050 A 
ATOM     34  C   UNL     1      33.929  14.474  -2.978  1.00  0.00     0.157 A 
BRANCH  32  35
ATOM     35  O   UNL     1      34.926  15.499  -4.861  1.00  0.00    -0.504 OA
ATOM     36  H   UNL     1      35.284  16.324  -4.460  1.00  0.00     0.293 HD
ENDBRANCH  32  35
BRANCH  34  37
ATOM     37  O   UNL     1      35.167  14.113  -2.533  1.00  0.00    -0.504 OA
ATOM     38  H   UNL     1      35.016  13.794  -1.621  1.00  0.00     0.293 HD
ENDBRANCH  34  37
ENDBRANCH  28  29
BRANCH  28  39
ATOM     39  O   UNL     1      28.992  14.888  -3.792  1.00  0.00    -0.386 OA
ATOM     40  H   UNL     1      29.372  14.001  -3.614  1.00  0.00     0.211 HD
ENDBRANCH  28  39
ENDBRANCH  27  28
ENDBRANCH  26  27
ENDBRANCH   5  26
BRANCH   4  41
ATOM     41  O   UNL     1      28.679  14.066  -8.739  1.00  0.00    -0.385 OA
ATOM     42  H   UNL     1      29.157  14.251  -9.572  1.00  0.00     0.211 HD
ENDBRANCH   4  41
TORSDOF 16
ENDMDL
MODEL 7
REMARK VINA RESULT:    -8.306      3.825      7.315
REMARK INTER + INTRA:         -15.224
REMARK INTER:                 -13.874
REMARK INTRA:                  -1.350
REMARK UNBOUND:                -1.333
REMARK SMILES C[C@@H]1O[C@@H](OC[C@H]2O[C@@H](OCC(O)c3ccc(O)c(O)c3)[C@H](O)[C@@H](O)[C@@H]2O)[C@H](O)[C@H](O)[C@H]1O
REMARK SMILES IDX 7 1 26 2 24 3 22 4 9 5 8 6 6 7 5 8 4 9 2 10 32 11 3 12 30 13
REMARK SMILES IDX 28 14 1 15 33 16 31 18 29 20 27 22 25 24 10 26 11 27 12 28
REMARK SMILES IDX 14 29 21 30 15 31 19 32 16 33 17 34 20 35 18 37 13 39 23 41
REMARK H PARENT 33 17 31 19 29 21 27 23 25 25 20 36 18 38 13 40 23 42
ROOT
ATOM      1  C   UNL     1      27.389  14.285  -7.933  1.00  0.00     0.178 C 
ATOM      2  C   UNL     1      26.254  15.178  -8.455  1.00  0.00     0.177 C 
ATOM      3  C   UNL     1      25.514  15.816  -7.280  1.00  0.00     0.179 C 
ATOM      4  C   UNL     1      26.496  16.535  -6.363  1.00  0.00     0.202 C 
ATOM      5  C   UNL     1      27.612  15.564  -5.934  1.00  0.00     0.282 C 
ATOM      6  O   UNL     1      28.279  15.045  -7.086  1.00  0.00    -0.341 OA
ENDROOT
BRANCH   1   7
ATOM      7  C   UNL     1      28.194  13.698  -9.104  1.00  0.00     0.198 C 
BRANCH   7   8
ATOM      8  O   UNL     1      27.496  12.560  -9.625  1.00  0.00    -0.347 OA
BRANCH   8   9
ATOM      9  C   UNL     1      27.321  11.521  -8.659  1.00  0.00     0.281 C 
ATOM     10  C   UNL     1      28.952  10.099  -9.692  1.00  0.00     0.150 C 
ATOM     11  C   UNL     1      27.893   9.055 -10.085  1.00  0.00     0.174 C 
ATOM     12  O   UNL     1      28.558  10.805  -8.514  1.00  0.00    -0.344 OA
ATOM     13  C   UNL     1      26.536   9.750 -10.266  1.00  0.00     0.179 C 
ATOM     14  C   UNL     1      26.166  10.565  -9.026  1.00  0.00     0.202 C 
ATOM     15  C   UNL     1      30.302   9.453  -9.401  1.00  0.00     0.041 C 
BRANCH  11  16
ATOM     16  O   UNL     1      28.243   8.370 -11.305  1.00  0.00    -0.388 OA
ATOM     17  H   UNL     1      28.705   9.032 -11.855  1.00  0.00     0.211 HD
ENDBRANCH  11  16
BRANCH  13  18
ATOM     18  O   UNL     1      25.513   8.762 -10.490  1.00  0.00    -0.387 OA
ATOM     19  H   UNL     1      25.918   7.904 -10.251  1.00  0.00     0.211 HD
ENDBRANCH  13  18
BRANCH  14  20
ATOM     20  O   UNL     1      25.870   9.663  -7.945  1.00  0.00    -0.385 OA
ATOM     21  H   UNL     1      26.597   9.006  -7.966  1.00  0.00     0.211 HD
ENDBRANCH  14  20
ENDBRANCH   8   9
ENDBRANCH   7   8
ENDBRANCH   1   7
BRANCH   2  22
ATOM     22  O   UNL     1      25.324  14.429  -9.240  1.00  0.00    -0.387 OA
ATOM     23  H   UNL     1      25.778  14.269 -10.093  1.00  0.00     0.211 HD
ENDBRANCH   2  22
BRANCH   3  24
ATOM     24  O   UNL     1      24.535  16.735  -7.787  1.00  0.00    -0.387 OA
ATOM     25  H   UNL     1      24.563  17.500  -7.176  1.00  0.00     0.211 HD
ENDBRANCH   3  24
BRANCH   5  26
ATOM     26  O   UNL     1      28.517  16.334  -5.137  1.00  0.00    -0.347 OA
BRANCH  26  27
ATOM     27  C   UNL     1      29.373  15.566  -4.283  1.00  0.00     0.200 C 
BRANCH  27  28
ATOM     28  C   UNL     1      30.726  15.136  -4.890  1.00  0.00     0.170 C 
BRANCH  28  29
ATOM     29  C   UNL     1      31.928  15.031  -3.968  1.00  0.00    -0.013 A 
ATOM     30  C   UNL     1      33.213  15.138  -4.534  1.00  0.00     0.056 A 
ATOM     31  C   UNL     1      31.829  14.799  -2.586  1.00  0.00     0.010 A 
ATOM     32  C   UNL     1      34.347  15.053  -3.734  1.00  0.00     0.157 A 
ATOM     33  C   UNL     1      32.974  14.693  -1.788  1.00  0.00     0.050 A 
ATOM     34  C   UNL     1      34.225  14.822  -2.370  1.00  0.00     0.157 A 
BRANCH  32  35
ATOM     35  O   UNL     1      35.603  15.219  -4.249  1.00  0.00    -0.504 OA
ATOM     36  H   UNL     1      36.248  15.022  -3.531  1.00  0.00     0.293 HD
ENDBRANCH  32  35
BRANCH  34  37
ATOM     37  O   UNL     1      35.339  14.728  -1.588  1.00  0.00    -0.504 OA
ATOM     38  H   UNL     1      35.085  14.109  -0.874  1.00  0.00     0.293 HD
ENDBRANCH  34  37
ENDBRANCH  28  29
BRANCH  28  39
ATOM     39  O   UNL     1      31.043  15.975  -6.004  1.00  0.00    -0.386 OA
ATOM     40  H   UNL     1      30.240  16.511  -6.181  1.00  0.00     0.211 HD
ENDBRANCH  28  39
ENDBRANCH  27  28
ENDBRANCH  26  27
ENDBRANCH   5  26
BRANCH   4  41
ATOM     41  O   UNL     1      25.779  17.049  -5.229  1.00  0.00    -0.385 OA
ATOM     42  H   UNL     1      25.316  16.276  -4.847  1.00  0.00     0.211 HD
ENDBRANCH   4  41
TORSDOF 16
ENDMDL
MODEL 8
REMARK VINA RESULT:    -8.253      2.527      3.818
REMARK INTER + INTRA:         -15.135
REMARK INTER:                 -14.732
REMARK INTRA:                  -0.404
REMARK UNBOUND:                -1.333
REMARK SMILES C[C@@H]1O[C@@H](OC[C@H]2O[C@@H](OCC(O)c3ccc(O)c(O)c3)[C@H](O)[C@@H](O)[C@@H]2O)[C@H](O)[C@H](O)[C@H]1O
REMARK SMILES IDX 7 1 26 2 24 3 22 4 9 5 8 6 6 7 5 8 4 9 2 10 32 11 3 12 30 13
REMARK SMILES IDX 28 14 1 15 33 16 31 18 29 20 27 22 25 24 10 26 11 27 12 28
REMARK SMILES IDX 14 29 21 30 15 31 19 32 16 33 17 34 20 35 18 37 13 39 23 41
REMARK H PARENT 33 17 31 19 29 21 27 23 25 25 20 36 18 38 13 40 23 42
ROOT
ATOM      1  C   UNL     1      27.912  16.363  -9.782  1.00  0.00     0.178 C 
ATOM      2  C   UNL     1      26.772  15.421 -10.197  1.00  0.00     0.177 C 
ATOM      3  C   UNL     1      27.172  13.972  -9.926  1.00  0.00     0.179 C 
ATOM      4  C   UNL     1      27.616  13.806  -8.478  1.00  0.00     0.202 C 
ATOM      5  C   UNL     1      28.728  14.823  -8.158  1.00  0.00     0.282 C 
ATOM      6  O   UNL     1      28.262  16.152  -8.397  1.00  0.00    -0.341 OA
ENDROOT
BRANCH   1   7
ATOM      7  C   UNL     1      27.495  17.830  -9.974  1.00  0.00     0.198 C 
BRANCH   7   8
ATOM      8  O   UNL     1      27.268  18.423  -8.689  1.00  0.00    -0.347 OA
BRANCH   8   9
ATOM      9  C   UNL     1      25.939  18.217  -8.205  1.00  0.00     0.281 C 
ATOM     10  C   UNL     1      26.266  19.637  -6.302  1.00  0.00     0.150 C 
ATOM     11  C   UNL     1      26.136  18.463  -5.317  1.00  0.00     0.174 C 
ATOM     12  O   UNL     1      25.515  19.390  -7.491  1.00  0.00    -0.344 OA
ATOM     13  C   UNL     1      26.579  17.167  -6.010  1.00  0.00     0.179 C 
ATOM     14  C   UNL     1      25.822  16.958  -7.321  1.00  0.00     0.202 C 
ATOM     15  C   UNL     1      25.745  20.939  -5.702  1.00  0.00     0.041 C 
BRANCH  11  16
ATOM     16  O   UNL     1      26.932  18.666  -4.132  1.00  0.00    -0.388 OA
ATOM     17  H   UNL     1      26.475  18.175  -3.422  1.00  0.00     0.211 HD
ENDBRANCH  11  16
BRANCH  13  18
ATOM     18  O   UNL     1      26.323  16.045  -5.145  1.00  0.00    -0.387 OA
ATOM     19  H   UNL     1      26.290  15.262  -5.732  1.00  0.00     0.211 HD
ENDBRANCH  13  18
BRANCH  14  20
ATOM     20  O   UNL     1      24.448  16.652  -7.024  1.00  0.00    -0.385 OA
ATOM     21  H   UNL     1      24.108  17.456  -6.578  1.00  0.00     0.211 HD
ENDBRANCH  14  20
ENDBRANCH   8   9
ENDBRANCH   7   8
ENDBRANCH   1   7
BRANCH   2  22
ATOM     22  O   UNL     1      26.456  15.567 -11.583  1.00  0.00    -0.387 OA
ATOM     23  H   UNL     1      26.495  16.531 -11.755  1.00  0.00     0.211 HD
ENDBRANCH   2  22
BRANCH   3  24
ATOM     24  O   UNL     1      26.054  13.117 -10.210  1.00  0.00    -0.387 OA
ATOM     25  H   UNL     1      25.289  13.545  -9.773  1.00  0.00     0.211 HD
ENDBRANCH   3  24
BRANCH   5  26
ATOM     26  O   UNL     1      29.036  14.643  -6.772  1.00  0.00    -0.347 OA
BRANCH  26  27
ATOM     27  C   UNL     1      29.938  15.612  -6.224  1.00  0.00     0.200 C 
BRANCH  27  28
ATOM     28  C   UNL     1      30.017  15.669  -4.683  1.00  0.00     0.170 C 
BRANCH  28  29
ATOM     29  C   UNL     1      31.321  15.276  -4.014  1.00  0.00    -0.013 A 
ATOM     30  C   UNL     1      32.527  15.553  -4.688  1.00  0.00     0.056 A 
ATOM     31  C   UNL     1      31.392  14.619  -2.773  1.00  0.00     0.010 A 
ATOM     32  C   UNL     1      33.749  15.216  -4.118  1.00  0.00     0.157 A 
ATOM     33  C   UNL     1      32.624  14.263  -2.214  1.00  0.00     0.050 A 
ATOM     34  C   UNL     1      33.794  14.566  -2.891  1.00  0.00     0.157 A 
BRANCH  32  35
ATOM     35  O   UNL     1      34.935  15.534  -4.722  1.00  0.00    -0.504 OA
ATOM     36  H   UNL     1      35.275  16.356  -4.299  1.00  0.00     0.293 HD
ENDBRANCH  32  35
BRANCH  34  37
ATOM     37  O   UNL     1      34.994  14.227  -2.338  1.00  0.00    -0.504 OA
ATOM     38  H   UNL     1      35.568  15.001  -2.505  1.00  0.00     0.293 HD
ENDBRANCH  34  37
ENDBRANCH  28  29
BRANCH  28  39
ATOM     39  O   UNL     1      28.938  14.919  -4.117  1.00  0.00    -0.386 OA
ATOM     40  H   UNL     1      29.042  14.981  -3.143  1.00  0.00     0.211 HD
ENDBRANCH  28  39
ENDBRANCH  27  28
ENDBRANCH  26  27
ENDBRANCH   5  26
BRANCH   4  41
ATOM     41  O   UNL     1      28.065  12.455  -8.283  1.00  0.00    -0.385 OA
ATOM     42  H   UNL     1      28.980  12.437  -8.627  1.00  0.00     0.211 HD
ENDBRANCH   4  41
TORSDOF 16
ENDMDL
MODEL 9
REMARK VINA RESULT:    -8.088      2.529      4.172
REMARK INTER + INTRA:         -14.859
REMARK INTER:                 -13.448
REMARK INTRA:                  -1.411
REMARK UNBOUND:                -1.333
REMARK SMILES C[C@@H]1O[C@@H](OC[C@H]2O[C@@H](OCC(O)c3ccc(O)c(O)c3)[C@H](O)[C@@H](O)[C@@H]2O)[C@H](O)[C@H](O)[C@H]1O
REMARK SMILES IDX 7 1 26 2 24 3 22 4 9 5 8 6 6 7 5 8 4 9 2 10 32 11 3 12 30 13
REMARK SMILES IDX 28 14 1 15 33 16 31 18 29 20 27 22 25 24 10 26 11 27 12 28
REMARK SMILES IDX 14 29 21 30 15 31 19 32 16 33 17 34 20 35 18 37 13 39 23 41
REMARK H PARENT 33 17 31 19 29 21 27 23 25 25 20 36 18 38 13 40 23 42
ROOT
ATOM      1  C   UNL     1      25.217  18.860 -11.070  1.00  0.00     0.178 C 
ATOM      2  C   UNL     1      26.096  18.677 -12.316  1.00  0.00     0.177 C 
ATOM      3  C   UNL     1      27.217  17.684 -12.018  1.00  0.00     0.179 C 
ATOM      4  C   UNL     1      26.643  16.383 -11.470  1.00  0.00     0.202 C 
ATOM      5  C   UNL     1      25.747  16.684 -10.254  1.00  0.00     0.282 C 
ATOM      6  O   UNL     1      24.702  17.586 -10.625  1.00  0.00    -0.341 OA
ENDROOT
BRANCH   1   7
ATOM      7  C   UNL     1      24.037  19.796 -11.377  1.00  0.00     0.198 C 
BRANCH   7   8
ATOM      8  O   UNL     1      24.509  21.148 -11.405  1.00  0.00    -0.347 OA
BRANCH   8   9
ATOM      9  C   UNL     1      24.204  21.873 -10.210  1.00  0.00     0.281 C 
ATOM     10  C   UNL     1      23.632  23.871 -11.404  1.00  0.00     0.150 C 
ATOM     11  C   UNL     1      24.827  24.644 -10.822  1.00  0.00     0.174 C 
ATOM     12  O   UNL     1      23.195  22.853 -10.503  1.00  0.00    -0.344 OA
ATOM     13  C   UNL     1      25.956  23.658 -10.487  1.00  0.00     0.179 C 
ATOM     14  C   UNL     1      25.452  22.531  -9.585  1.00  0.00     0.202 C 
ATOM     15  C   UNL     1      22.439  24.785 -11.663  1.00  0.00     0.041 C 
BRANCH  11  16
ATOM     16  O   UNL     1      25.321  25.640 -11.740  1.00  0.00    -0.388 OA
ATOM     17  H   UNL     1      24.908  26.480 -11.462  1.00  0.00     0.211 HD
ENDBRANCH  11  16
BRANCH  13  18
ATOM     18  O   UNL     1      27.018  24.352  -9.808  1.00  0.00    -0.387 OA
ATOM     19  H   UNL     1      27.823  23.818  -9.964  1.00  0.00     0.211 HD
ENDBRANCH  13  18
BRANCH  14  20
ATOM     20  O   UNL     1      25.164  23.068  -8.282  1.00  0.00    -0.385 OA
ATOM     21  H   UNL     1      25.128  22.284  -7.695  1.00  0.00     0.211 HD
ENDBRANCH  14  20
ENDBRANCH   8   9
ENDBRANCH   7   8
ENDBRANCH   1   7
BRANCH   2  22
ATOM     22  O   UNL     1      26.670  19.918 -12.732  1.00  0.00    -0.387 OA
ATOM     23  H   UNL     1      26.772  20.442 -11.911  1.00  0.00     0.211 HD
ENDBRANCH   2  22
BRANCH   3  24
ATOM     24  O   UNL     1      27.957  17.437 -13.223  1.00  0.00    -0.387 OA
ATOM     25  H   UNL     1      27.413  16.800 -13.730  1.00  0.00     0.211 HD
ENDBRANCH   3  24
BRANCH   5  26
ATOM     26  O   UNL     1      25.200  15.426  -9.848  1.00  0.00    -0.347 OA
BRANCH  26  27
ATOM     27  C   UNL     1      25.439  15.077  -8.479  1.00  0.00     0.200 C 
BRANCH  27  28
ATOM     28  C   UNL     1      25.916  16.224  -7.562  1.00  0.00     0.170 C 
BRANCH  28  29
ATOM     29  C   UNL     1      27.154  16.000  -6.713  1.00  0.00    -0.013 A 
ATOM     30  C   UNL     1      28.408  15.979  -7.355  1.00  0.00     0.056 A 
ATOM     31  C   UNL     1      27.116  15.778  -5.326  1.00  0.00     0.010 A 
ATOM     32  C   UNL     1      29.573  15.781  -6.623  1.00  0.00     0.157 A 
ATOM     33  C   UNL     1      28.290  15.557  -4.597  1.00  0.00     0.050 A 
ATOM     34  C   UNL     1      29.510  15.561  -5.253  1.00  0.00     0.157 A 
BRANCH  32  35
ATOM     35  O   UNL     1      30.807  15.821  -7.213  1.00  0.00    -0.504 OA
ATOM     36  H   UNL     1      30.676  15.724  -8.185  1.00  0.00     0.293 HD
ENDBRANCH  32  35
BRANCH  34  37
ATOM     37  O   UNL     1      30.655  15.356  -4.538  1.00  0.00    -0.504 OA
ATOM     38  H   UNL     1      31.372  15.649  -5.136  1.00  0.00     0.293 HD
ENDBRANCH  34  37
ENDBRANCH  28  29
BRANCH  28  39
ATOM     39  O   UNL     1      24.834  16.660  -6.733  1.00  0.00    -0.386 OA
ATOM     40  H   UNL     1      25.200  16.744  -5.826  1.00  0.00     0.211 HD
ENDBRANCH  28  39
ENDBRANCH  27  28
ENDBRANCH  26  27
ENDBRANCH   5  26
BRANCH   4  41
ATOM     41  O   UNL     1      27.727  15.507 -11.122  1.00  0.00    -0.385 OA
ATOM     42  H   UNL     1      27.445  14.620 -11.421  1.00  0.00     0.211 HD
ENDBRANCH   4  41
TORSDOF 16
ENDMDL
