MODEL 1
REMARK VINA RESULT:    -9.019      0.000      0.000
REMARK INTER + INTRA:         -16.420
REMARK INTER:                 -15.082
REMARK INTRA:                  -1.338
REMARK UNBOUND:                -1.338
REMARK SMILES C[C@@H]1O[C@@H](OC[C@H]2O[C@@H](OCC(O)c3ccc(O)c(O)c3)[C@H](O)[C@@H](O)[C@@H]2O)[C@H](O)[C@H](O)[C@H]1O
REMARK SMILES IDX 7 1 26 2 24 3 22 4 9 5 8 6 6 7 5 8 4 9 2 10 32 11 3 12 30 13
REMARK SMILES IDX 28 14 1 15 33 16 31 18 29 20 27 22 25 24 10 26 11 27 12 28
REMARK SMILES IDX 14 29 21 30 15 31 19 32 16 33 17 34 20 35 18 37 13 39 23 41
REMARK H PARENT 33 17 31 19 29 21 27 23 25 25 20 36 18 38 13 40 23 42
ROOT
ATOM      1  C   UNL     1      26.888  17.645  -8.170  1.00  0.00     0.178 C 
ATOM      2  C   UNL     1      25.572  16.881  -8.375  1.00  0.00     0.177 C 
ATOM      3  C   UNL     1      25.865  15.476  -8.898  1.00  0.00     0.179 C 
ATOM      4  C   UNL     1      26.857  14.766  -7.984  1.00  0.00     0.202 C 
ATOM      5  C   UNL     1      28.117  15.635  -7.813  1.00  0.00     0.282 C 
ATOM      6  O   UNL     1      27.763  16.914  -7.283  1.00  0.00    -0.341 OA
ENDROOT
BRANCH   1   7
ATOM      7  C   UNL     1      26.616  19.034  -7.569  1.00  0.00     0.198 C 
BRANCH   7   8
ATOM      8  O   UNL     1      26.653  20.011  -8.617  1.00  0.00    -0.347 OA
BRANCH   8   9
ATOM      9  C   UNL     1      25.474  20.818  -8.671  1.00  0.00     0.281 C 
ATOM     10  C   UNL     1      25.244  20.564 -11.044  1.00  0.00     0.150 C 
ATOM     11  C   UNL     1      25.522  22.055 -11.299  1.00  0.00     0.174 C 
ATOM     12  O   UNL     1      24.650  20.370  -9.759  1.00  0.00    -0.344 OA
ATOM     13  C   UNL     1      26.407  22.608 -10.174  1.00  0.00     0.179 C 
ATOM     14  C   UNL     1      25.796  22.322  -8.802  1.00  0.00     0.202 C 
ATOM     15  C   UNL     1      24.285  19.982 -12.077  1.00  0.00     0.041 C 
BRANCH  11  16
ATOM     16  O   UNL     1      26.174  22.270 -12.567  1.00  0.00    -0.388 OA
ATOM     17  H   UNL     1      27.129  22.307 -12.368  1.00  0.00     0.211 HD
ENDBRANCH  11  16
BRANCH  13  18
ATOM     18  O   UNL     1      26.551  24.032 -10.327  1.00  0.00    -0.387 OA
ATOM     19  H   UNL     1      26.562  24.194 -11.291  1.00  0.00     0.211 HD
ENDBRANCH  13  18
BRANCH  14  20
ATOM     20  O   UNL     1      24.615  23.126  -8.640  1.00  0.00    -0.385 OA
ATOM     21  H   UNL     1      24.918  23.911  -8.138  1.00  0.00     0.211 HD
ENDBRANCH  14  20
ENDBRANCH   8   9
ENDBRANCH   7   8
ENDBRANCH   1   7
BRANCH   2  22
ATOM     22  O   UNL     1      24.720  17.555  -9.303  1.00  0.00    -0.387 OA
ATOM     23  H   UNL     1      24.417  18.361  -8.835  1.00  0.00     0.211 HD
ENDBRANCH   2  22
BRANCH   3  24
ATOM     24  O   UNL     1      24.636  14.739  -8.973  1.00  0.00    -0.387 OA
ATOM     25  H   UNL     1      24.904  13.797  -8.989  1.00  0.00     0.211 HD
ENDBRANCH   3  24
BRANCH   5  26
ATOM     26  O   UNL     1      28.958  14.929  -6.895  1.00  0.00    -0.347 OA
BRANCH  26  27
ATOM     27  C   UNL     1      29.979  15.724  -6.279  1.00  0.00     0.200 C 
BRANCH  27  28
ATOM     28  C   UNL     1      30.027  15.688  -4.736  1.00  0.00     0.170 C 
BRANCH  28  29
ATOM     29  C   UNL     1      31.322  15.269  -4.065  1.00  0.00    -0.013 A 
ATOM     30  C   UNL     1      32.535  15.554  -4.721  1.00  0.00     0.056 A 
ATOM     31  C   UNL     1      31.376  14.580  -2.842  1.00  0.00     0.010 A 
ATOM     32  C   UNL     1      33.750  15.195  -4.149  1.00  0.00     0.157 A 
ATOM     33  C   UNL     1      32.601  14.201  -2.280  1.00  0.00     0.050 A 
ATOM     34  C   UNL     1      33.779  14.513  -2.939  1.00  0.00     0.157 A 
BRANCH  32  35
ATOM     35  O   UNL     1      34.944  15.519  -4.734  1.00  0.00    -0.504 OA
ATOM     36  H   UNL     1      35.651  15.022  -4.262  1.00  0.00     0.293 HD
ENDBRANCH  32  35
BRANCH  34  37
ATOM     37  O   UNL     1      34.972  14.151  -2.384  1.00  0.00    -0.504 OA
ATOM     38  H   UNL     1      35.299  13.429  -2.958  1.00  0.00     0.293 HD
ENDBRANCH  34  37
ENDBRANCH  28  29
BRANCH  28  39
ATOM     39  O   UNL     1      28.946  14.894  -4.239  1.00  0.00    -0.386 OA
ATOM     40  H   UNL     1      28.644  15.329  -3.412  1.00  0.00     0.211 HD
ENDBRANCH  28  39
ENDBRANCH  27  28
ENDBRANCH  26  27
ENDBRANCH   5  26
BRANCH   4  41
ATOM     41  O   UNL     1      27.173  13.484  -8.551  1.00  0.00    -0.385 OA
ATOM     42  H   UNL     1      26.313  13.099  -8.810  1.00  0.00     0.211 HD
ENDBRANCH   4  41
TORSDOF 16
ENDMDL
MODEL 2
REMARK VINA RESULT:    -8.885      1.231      1.273
REMARK INTER + INTRA:         -16.196
REMARK INTER:                 -14.941
REMARK INTRA:                  -1.255
REMARK UNBOUND:                -1.338
REMARK SMILES C[C@@H]1O[C@@H](OC[C@H]2O[C@@H](OCC(O)c3ccc(O)c(O)c3)[C@H](O)[C@@H](O)[C@@H]2O)[C@H](O)[C@H](O)[C@H]1O
REMARK SMILES IDX 7 1 26 2 24 3 22 4 9 5 8 6 6 7 5 8 4 9 2 10 32 11 3 12 30 13
REMARK SMILES IDX 28 14 1 15 33 16 31 18 29 20 27 22 25 24 10 26 11 27 12 28
REMARK SMILES IDX 14 29 21 30 15 31 19 32 16 33 17 34 20 35 18 37 13 39 23 41
REMARK H PARENT 33 17 31 19 29 21 27 23 25 25 20 36 18 38 13 40 23 42
ROOT
ATOM      1  C   UNL     1      27.078  18.285  -8.695  1.00  0.00     0.178 C 
ATOM      2  C   UNL     1      26.284  17.522  -9.765  1.00  0.00     0.177 C 
ATOM      3  C   UNL     1      27.066  16.286 -10.208  1.00  0.00     0.179 C 
ATOM      4  C   UNL     1      27.449  15.439  -9.001  1.00  0.00     0.202 C 
ATOM      5  C   UNL     1      28.201  16.309  -7.976  1.00  0.00     0.282 C 
ATOM      6  O   UNL     1      27.388  17.417  -7.583  1.00  0.00    -0.341 OA
ENDROOT
BRANCH   1   7
ATOM      7  C   UNL     1      26.271  19.487  -8.181  1.00  0.00     0.198 C 
BRANCH   7   8
ATOM      8  O   UNL     1      26.546  20.623  -9.011  1.00  0.00    -0.347 OA
BRANCH   8   9
ATOM      9  C   UNL     1      25.364  21.311  -9.427  1.00  0.00     0.281 C 
ATOM     10  C   UNL     1      26.294  21.903 -11.556  1.00  0.00     0.150 C 
ATOM     11  C   UNL     1      26.293  23.403 -11.216  1.00  0.00     0.174 C 
ATOM     12  O   UNL     1      25.251  21.222 -10.857  1.00  0.00    -0.344 OA
ATOM     13  C   UNL     1      26.418  23.580  -9.696  1.00  0.00     0.179 C 
ATOM     14  C   UNL     1      25.343  22.781  -8.959  1.00  0.00     0.202 C 
ATOM     15  C   UNL     1      26.071  21.661 -13.045  1.00  0.00     0.041 C 
BRANCH  11  16
ATOM     16  O   UNL     1      27.374  24.101 -11.867  1.00  0.00    -0.388 OA
ATOM     17  H   UNL     1      28.192  23.761 -11.455  1.00  0.00     0.211 HD
ENDBRANCH  11  16
BRANCH  13  18
ATOM     18  O   UNL     1      26.272  24.971  -9.357  1.00  0.00    -0.387 OA
ATOM     19  H   UNL     1      26.263  25.005  -8.380  1.00  0.00     0.211 HD
ENDBRANCH  13  18
BRANCH  14  20
ATOM     20  O   UNL     1      24.061  23.389  -9.200  1.00  0.00    -0.385 OA
ATOM     21  H   UNL     1      23.772  23.710  -8.321  1.00  0.00     0.211 HD
ENDBRANCH  14  20
ENDBRANCH   8   9
ENDBRANCH   7   8
ENDBRANCH   1   7
BRANCH   2  22
ATOM     22  O   UNL     1      26.027  18.344 -10.905  1.00  0.00    -0.387 OA
ATOM     23  H   UNL     1      25.842  19.236 -10.542  1.00  0.00     0.211 HD
ENDBRANCH   2  22
BRANCH   3  24
ATOM     24  O   UNL     1      26.260  15.525 -11.120  1.00  0.00    -0.387 OA
ATOM     25  H   UNL     1      26.587  15.766 -12.012  1.00  0.00     0.211 HD
ENDBRANCH   3  24
BRANCH   5  26
ATOM     26  O   UNL     1      28.460  15.458  -6.855  1.00  0.00    -0.347 OA
BRANCH  26  27
ATOM     27  C   UNL     1      29.757  15.614  -6.267  1.00  0.00     0.200 C 
BRANCH  27  28
ATOM     28  C   UNL     1      29.803  15.630  -4.723  1.00  0.00     0.170 C 
BRANCH  28  29
ATOM     29  C   UNL     1      31.128  15.343  -4.040  1.00  0.00    -0.013 A 
ATOM     30  C   UNL     1      32.315  15.576  -4.761  1.00  0.00     0.056 A 
ATOM     31  C   UNL     1      31.234  14.823  -2.738  1.00  0.00     0.010 A 
ATOM     32  C   UNL     1      33.554  15.333  -4.180  1.00  0.00     0.157 A 
ATOM     33  C   UNL     1      32.484  14.560  -2.166  1.00  0.00     0.050 A 
ATOM     34  C   UNL     1      33.635  14.818  -2.893  1.00  0.00     0.157 A 
BRANCH  32  35
ATOM     35  O   UNL     1      34.722  15.613  -4.836  1.00  0.00    -0.504 OA
ATOM     36  H   UNL     1      35.465  15.320  -4.260  1.00  0.00     0.293 HD
ENDBRANCH  32  35
BRANCH  34  37
ATOM     37  O   UNL     1      34.852  14.570  -2.328  1.00  0.00    -0.504 OA
ATOM     38  H   UNL     1      35.474  14.563  -3.083  1.00  0.00     0.293 HD
ENDBRANCH  34  37
ENDBRANCH  28  29
BRANCH  28  39
ATOM     39  O   UNL     1      28.792  14.762  -4.202  1.00  0.00    -0.386 OA
ATOM     40  H   UNL     1      28.577  15.099  -3.305  1.00  0.00     0.211 HD
ENDBRANCH  28  39
ENDBRANCH  27  28
ENDBRANCH  26  27
ENDBRANCH   5  26
BRANCH   4  41
ATOM     41  O   UNL     1      28.253  14.335  -9.446  1.00  0.00    -0.385 OA
ATOM     42  H   UNL     1      28.287  14.419 -10.420  1.00  0.00     0.211 HD
ENDBRANCH   4  41
TORSDOF 16
ENDMDL
MODEL 3
REMARK VINA RESULT:    -8.862      2.567      6.628
REMARK INTER + INTRA:         -16.158
REMARK INTER:                 -14.861
REMARK INTRA:                  -1.297
REMARK UNBOUND:                -1.338
REMARK SMILES C[C@@H]1O[C@@H](OC[C@H]2O[C@@H](OCC(O)c3ccc(O)c(O)c3)[C@H](O)[C@@H](O)[C@@H]2O)[C@H](O)[C@H](O)[C@H]1O
REMARK SMILES IDX 7 1 26 2 24 3 22 4 9 5 8 6 6 7 5 8 4 9 2 10 32 11 3 12 30 13
REMARK SMILES IDX 28 14 1 15 33 16 31 18 29 20 27 22 25 24 10 26 11 27 12 28
REMARK SMILES IDX 14 29 21 30 15 31 19 32 16 33 17 34 20 35 18 37 13 39 23 41
REMARK H PARENT 33 17 31 19 29 21 27 23 25 25 20 36 18 38 13 40 23 42
ROOT
ATOM      1  C   UNL     1      26.313  16.244  -9.013  1.00  0.00     0.178 C 
ATOM      2  C   UNL     1      26.876  17.653  -9.244  1.00  0.00     0.177 C 
ATOM      3  C   UNL     1      26.297  18.618  -8.211  1.00  0.00     0.179 C 
ATOM      4  C   UNL     1      26.522  18.085  -6.801  1.00  0.00     0.202 C 
ATOM      5  C   UNL     1      25.959  16.655  -6.692  1.00  0.00     0.282 C 
ATOM      6  O   UNL     1      26.579  15.808  -7.662  1.00  0.00    -0.341 OA
ENDROOT
BRANCH   1   7
ATOM      7  C   UNL     1      26.946  15.244  -9.994  1.00  0.00     0.198 C 
BRANCH   7   8
ATOM      8  O   UNL     1      26.502  13.922  -9.664  1.00  0.00    -0.347 OA
BRANCH   8   9
ATOM      9  C   UNL     1      27.513  12.929  -9.854  1.00  0.00     0.281 C 
ATOM     10  C   UNL     1      26.046  11.471 -11.067  1.00  0.00     0.150 C 
ATOM     11  C   UNL     1      26.084  10.401  -9.963  1.00  0.00     0.174 C 
ATOM     12  O   UNL     1      27.256  12.230 -11.083  1.00  0.00    -0.344 OA
ATOM     13  C   UNL     1      26.350  11.076  -8.610  1.00  0.00     0.179 C 
ATOM     14  C   UNL     1      27.605  11.947  -8.667  1.00  0.00     0.202 C 
ATOM     15  C   UNL     1      25.885  10.850 -12.451  1.00  0.00     0.041 C 
BRANCH  11  16
ATOM     16  O   UNL     1      24.849   9.661  -9.892  1.00  0.00    -0.388 OA
ATOM     17  H   UNL     1      24.808   9.138 -10.716  1.00  0.00     0.211 HD
ENDBRANCH  11  16
BRANCH  13  18
ATOM     18  O   UNL     1      26.531  10.071  -7.596  1.00  0.00    -0.387 OA
ATOM     19  H   UNL     1      26.618  10.560  -6.753  1.00  0.00     0.211 HD
ENDBRANCH  13  18
BRANCH  14  20
ATOM     20  O   UNL     1      28.759  11.097  -8.779  1.00  0.00    -0.385 OA
ATOM     21  H   UNL     1      29.009  10.897  -7.852  1.00  0.00     0.211 HD
ENDBRANCH  14  20
ENDBRANCH   8   9
ENDBRANCH   7   8
ENDBRANCH   1   7
BRANCH   2  22
ATOM     22  O   UNL     1      26.562  18.129 -10.554  1.00  0.00    -0.387 OA
ATOM     23  H   UNL     1      26.093  18.978 -10.414  1.00  0.00     0.211 HD
ENDBRANCH   2  22
BRANCH   3  24
ATOM     24  O   UNL     1      26.921  19.902  -8.368  1.00  0.00    -0.387 OA
ATOM     25  H   UNL     1      27.847  19.772  -8.077  1.00  0.00     0.211 HD
ENDBRANCH   3  24
BRANCH   5  26
ATOM     26  O   UNL     1      26.271  16.211  -5.368  1.00  0.00    -0.347 OA
BRANCH  26  27
ATOM     27  C   UNL     1      27.636  16.397  -4.976  1.00  0.00     0.200 C 
BRANCH  27  28
ATOM     28  C   UNL     1      28.512  15.126  -4.945  1.00  0.00     0.170 C 
BRANCH  28  29
ATOM     29  C   UNL     1      29.927  15.239  -4.406  1.00  0.00    -0.013 A 
ATOM     30  C   UNL     1      30.952  15.615  -5.296  1.00  0.00     0.056 A 
ATOM     31  C   UNL     1      30.276  14.956  -3.074  1.00  0.00     0.010 A 
ATOM     32  C   UNL     1      32.264  15.737  -4.852  1.00  0.00     0.157 A 
ATOM     33  C   UNL     1      31.602  15.059  -2.638  1.00  0.00     0.050 A 
ATOM     34  C   UNL     1      32.585  15.450  -3.532  1.00  0.00     0.157 A 
BRANCH  32  35
ATOM     35  O   UNL     1      33.265  16.164  -5.681  1.00  0.00    -0.504 OA
ATOM     36  H   UNL     1      33.232  15.612  -6.497  1.00  0.00     0.293 HD
ENDBRANCH  32  35
BRANCH  34  37
ATOM     37  O   UNL     1      33.876  15.559  -3.101  1.00  0.00    -0.504 OA
ATOM     38  H   UNL     1      34.109  14.658  -2.800  1.00  0.00     0.293 HD
ENDBRANCH  34  37
ENDBRANCH  28  29
BRANCH  28  39
ATOM     39  O   UNL     1      28.537  14.526  -6.244  1.00  0.00    -0.386 OA
ATOM     40  H   UNL     1      29.482  14.480  -6.506  1.00  0.00     0.211 HD
ENDBRANCH  28  39
ENDBRANCH  27  28
ENDBRANCH  26  27
ENDBRANCH   5  26
BRANCH   4  41
ATOM     41  O   UNL     1      25.892  18.973  -5.864  1.00  0.00    -0.385 OA
ATOM     42  H   UNL     1      26.334  18.798  -5.009  1.00  0.00     0.211 HD
ENDBRANCH   4  41
TORSDOF 16
ENDMDL
MODEL 4
REMARK VINA RESULT:    -8.731      1.516      1.854
REMARK INTER + INTRA:         -15.939
REMARK INTER:                 -14.468
REMARK INTRA:                  -1.471
REMARK UNBOUND:                -1.338
REMARK SMILES C[C@@H]1O[C@@H](OC[C@H]2O[C@@H](OCC(O)c3ccc(O)c(O)c3)[C@H](O)[C@@H](O)[C@@H]2O)[C@H](O)[C@H](O)[C@H]1O
REMARK SMILES IDX 7 1 26 2 24 3 22 4 9 5 8 6 6 7 5 8 4 9 2 10 32 11 3 12 30 13
REMARK SMILES IDX 28 14 1 15 33 16 31 18 29 20 27 22 25 24 10 26 11 27 12 28
REMARK SMILES IDX 14 29 21 30 15 31 19 32 16 33 17 34 20 35 18 37 13 39 23 41
REMARK H PARENT 33 17 31 19 29 21 27 23 25 25 20 36 18 38 13 40 23 42
ROOT
ATOM      1  C   UNL     1      26.247  18.948  -8.331  1.00  0.00     0.178 C 
ATOM      2  C   UNL     1      25.353  18.173  -9.310  1.00  0.00     0.177 C 
ATOM      3  C   UNL     1      25.767  16.703  -9.338  1.00  0.00     0.179 C 
ATOM      4  C   UNL     1      25.782  16.129  -7.927  1.00  0.00     0.202 C 
ATOM      5  C   UNL     1      26.671  17.002  -7.022  1.00  0.00     0.282 C 
ATOM      6  O   UNL     1      26.194  18.349  -7.017  1.00  0.00    -0.341 OA
ENDROOT
BRANCH   1   7
ATOM      7  C   UNL     1      25.793  20.413  -8.231  1.00  0.00     0.198 C 
BRANCH   7   8
ATOM      8  O   UNL     1      26.461  21.178  -9.242  1.00  0.00    -0.347 OA
BRANCH   8   9
ATOM      9  C   UNL     1      25.635  22.200  -9.806  1.00  0.00     0.281 C 
ATOM     10  C   UNL     1      26.297  21.687 -12.052  1.00  0.00     0.150 C 
ATOM     11  C   UNL     1      27.010  23.039 -12.224  1.00  0.00     0.174 C 
ATOM     12  O   UNL     1      25.220  21.794 -11.120  1.00  0.00    -0.344 OA
ATOM     13  C   UNL     1      27.491  23.538 -10.854  1.00  0.00     0.179 C 
ATOM     14  C   UNL     1      26.341  23.572  -9.847  1.00  0.00     0.202 C 
ATOM     15  C   UNL     1      25.708  21.187 -13.367  1.00  0.00     0.041 C 
BRANCH  11  16
ATOM     16  O   UNL     1      28.137  22.941 -13.118  1.00  0.00    -0.388 OA
ATOM     17  H   UNL     1      28.103  22.036 -13.485  1.00  0.00     0.211 HD
ENDBRANCH  11  16
BRANCH  13  18
ATOM     18  O   UNL     1      28.027  24.867 -10.985  1.00  0.00    -0.387 OA
ATOM     19  H   UNL     1      27.522  25.419 -10.355  1.00  0.00     0.211 HD
ENDBRANCH  13  18
BRANCH  14  20
ATOM     20  O   UNL     1      25.428  24.620 -10.214  1.00  0.00    -0.385 OA
ATOM     21  H   UNL     1      24.694  24.546  -9.568  1.00  0.00     0.211 HD
ENDBRANCH  14  20
ENDBRANCH   8   9
ENDBRANCH   7   8
ENDBRANCH   1   7
BRANCH   2  22
ATOM     22  O   UNL     1      25.445  18.710 -10.631  1.00  0.00    -0.387 OA
ATOM     23  H   UNL     1      25.988  18.067 -11.133  1.00  0.00     0.211 HD
ENDBRANCH   2  22
BRANCH   3  24
ATOM     24  O   UNL     1      24.849  15.975 -10.168  1.00  0.00    -0.387 OA
ATOM     25  H   UNL     1      23.962  16.179  -9.806  1.00  0.00     0.211 HD
ENDBRANCH   3  24
BRANCH   5  26
ATOM     26  O   UNL     1      26.574  16.434  -5.712  1.00  0.00    -0.347 OA
BRANCH  26  27
ATOM     27  C   UNL     1      27.776  16.499  -4.936  1.00  0.00     0.200 C 
BRANCH  27  28
ATOM     28  C   UNL     1      28.585  15.188  -4.828  1.00  0.00     0.170 C 
BRANCH  28  29
ATOM     29  C   UNL     1      30.017  15.263  -4.329  1.00  0.00    -0.013 A 
ATOM     30  C   UNL     1      31.023  15.632  -5.244  1.00  0.00     0.056 A 
ATOM     31  C   UNL     1      30.399  14.952  -3.013  1.00  0.00     0.010 A 
ATOM     32  C   UNL     1      32.349  15.720  -4.838  1.00  0.00     0.157 A 
ATOM     33  C   UNL     1      31.739  15.022  -2.616  1.00  0.00     0.050 A 
ATOM     34  C   UNL     1      32.704  15.406  -3.533  1.00  0.00     0.157 A 
BRANCH  32  35
ATOM     35  O   UNL     1      33.335  16.139  -5.690  1.00  0.00    -0.504 OA
ATOM     36  H   UNL     1      32.917  16.722  -6.365  1.00  0.00     0.293 HD
ENDBRANCH  32  35
BRANCH  34  37
ATOM     37  O   UNL     1      34.008  15.483  -3.138  1.00  0.00    -0.504 OA
ATOM     38  H   UNL     1      34.043  14.964  -2.310  1.00  0.00     0.293 HD
ENDBRANCH  34  37
ENDBRANCH  28  29
BRANCH  28  39
ATOM     39  O   UNL     1      28.545  14.493  -6.078  1.00  0.00    -0.386 OA
ATOM     40  H   UNL     1      27.616  14.200  -6.200  1.00  0.00     0.211 HD
ENDBRANCH  28  39
ENDBRANCH  27  28
ENDBRANCH  26  27
ENDBRANCH   5  26
BRANCH   4  41
ATOM     41  O   UNL     1      26.256  14.774  -7.983  1.00  0.00    -0.385 OA
ATOM     42  H   UNL     1      25.832  14.323  -7.226  1.00  0.00     0.211 HD
ENDBRANCH   4  41
TORSDOF 16
ENDMDL
MODEL 5
REMARK VINA RESULT:    -8.682      2.559      6.630
REMARK INTER + INTRA:         -15.857
REMARK INTER:                 -14.453
REMARK INTRA:                  -1.404
REMARK UNBOUND:                -1.338
REMARK SMILES C[C@@H]1O[C@@H](OC[C@H]2O[C@@H](OCC(O)c3ccc(O)c(O)c3)[C@H](O)[C@@H](O)[C@@H]2O)[C@H](O)[C@H](O)[C@H]1O
REMARK SMILES IDX 7 1 26 2 24 3 22 4 9 5 8 6 6 7 5 8 4 9 2 10 32 11 3 12 30 13
REMARK SMILES IDX 28 14 1 15 33 16 31 18 29 20 27 22 25 24 10 26 11 27 12 28
REMARK SMILES IDX 14 29 21 30 15 31 19 32 16 33 17 34 20 35 18 37 13 39 23 41
REMARK H PARENT 33 17 31 19 29 21 27 23 25 25 20 36 18 38 13 40 23 42
ROOT
ATOM      1  C   UNL     1      26.369  16.292  -9.176  1.00  0.00     0.178 C 
ATOM      2  C   UNL     1      26.956  17.693  -9.402  1.00  0.00     0.177 C 
ATOM      3  C   UNL     1      26.362  18.673  -8.391  1.00  0.00     0.179 C 
ATOM      4  C   UNL     1      26.544  18.148  -6.973  1.00  0.00     0.202 C 
ATOM      5  C   UNL     1      25.961  16.726  -6.868  1.00  0.00     0.282 C 
ATOM      6  O   UNL     1      26.595  15.864  -7.815  1.00  0.00    -0.341 OA
ENDROOT
BRANCH   1   7
ATOM      7  C   UNL     1      27.015  15.277 -10.133  1.00  0.00     0.198 C 
BRANCH   7   8
ATOM      8  O   UNL     1      27.261  14.057  -9.422  1.00  0.00    -0.347 OA
BRANCH   8   9
ATOM      9  C   UNL     1      26.699  12.912 -10.067  1.00  0.00     0.281 C 
ATOM     10  C   UNL     1      27.776  11.374  -8.576  1.00  0.00     0.150 C 
ATOM     11  C   UNL     1      28.655  10.796  -9.698  1.00  0.00     0.174 C 
ATOM     12  O   UNL     1      26.539  11.862  -9.099  1.00  0.00    -0.344 OA
ATOM     13  C   UNL     1      28.876  11.868 -10.775  1.00  0.00     0.179 C 
ATOM     14  C   UNL     1      27.545  12.436 -11.267  1.00  0.00     0.202 C 
ATOM     15  C   UNL     1      27.438  10.323  -7.525  1.00  0.00     0.041 C 
BRANCH  11  16
ATOM     16  O   UNL     1      29.933  10.349  -9.201  1.00  0.00    -0.388 OA
ATOM     17  H   UNL     1      30.596  10.705  -9.825  1.00  0.00     0.211 HD
ENDBRANCH  11  16
BRANCH  13  18
ATOM     18  O   UNL     1      29.574  11.292 -11.894  1.00  0.00    -0.387 OA
ATOM     19  H   UNL     1      29.138  11.656 -12.691  1.00  0.00     0.211 HD
ENDBRANCH  13  18
BRANCH  14  20
ATOM     20  O   UNL     1      26.857  11.426 -12.025  1.00  0.00    -0.385 OA
ATOM     21  H   UNL     1      26.014  11.289 -11.545  1.00  0.00     0.211 HD
ENDBRANCH  14  20
ENDBRANCH   8   9
ENDBRANCH   7   8
ENDBRANCH   1   7
BRANCH   2  22
ATOM     22  O   UNL     1      26.683  18.163 -10.723  1.00  0.00    -0.387 OA
ATOM     23  H   UNL     1      26.095  18.938 -10.605  1.00  0.00     0.211 HD
ENDBRANCH   2  22
BRANCH   3  24
ATOM     24  O   UNL     1      27.007  19.947  -8.541  1.00  0.00    -0.387 OA
ATOM     25  H   UNL     1      26.277  20.600  -8.574  1.00  0.00     0.211 HD
ENDBRANCH   3  24
BRANCH   5  26
ATOM     26  O   UNL     1      26.233  16.288  -5.533  1.00  0.00    -0.347 OA
BRANCH  26  27
ATOM     27  C   UNL     1      27.591  16.453  -5.110  1.00  0.00     0.200 C 
BRANCH  27  28
ATOM     28  C   UNL     1      28.448  15.168  -5.067  1.00  0.00     0.170 C 
BRANCH  28  29
ATOM     29  C   UNL     1      29.855  15.260  -4.505  1.00  0.00    -0.013 A 
ATOM     30  C   UNL     1      30.897  15.639  -5.374  1.00  0.00     0.056 A 
ATOM     31  C   UNL     1      30.182  14.954  -3.172  1.00  0.00     0.010 A 
ATOM     32  C   UNL     1      32.203  15.742  -4.910  1.00  0.00     0.157 A 
ATOM     33  C   UNL     1      31.502  15.038  -2.715  1.00  0.00     0.050 A 
ATOM     34  C   UNL     1      32.502  15.433  -3.589  1.00  0.00     0.157 A 
BRANCH  32  35
ATOM     35  O   UNL     1      33.221  16.170  -5.717  1.00  0.00    -0.504 OA
ATOM     36  H   UNL     1      33.738  16.841  -5.214  1.00  0.00     0.293 HD
ENDBRANCH  32  35
BRANCH  34  37
ATOM     37  O   UNL     1      33.787  15.524  -3.137  1.00  0.00    -0.504 OA
ATOM     38  H   UNL     1      33.723  15.331  -2.181  1.00  0.00     0.293 HD
ENDBRANCH  34  37
ENDBRANCH  28  29
BRANCH  28  39
ATOM     39  O   UNL     1      28.484  14.570  -6.365  1.00  0.00    -0.386 OA
ATOM     40  H   UNL     1      29.256  13.963  -6.366  1.00  0.00     0.211 HD
ENDBRANCH  28  39
ENDBRANCH  27  28
ENDBRANCH  26  27
ENDBRANCH   5  26
BRANCH   4  41
ATOM     41  O   UNL     1      25.901  19.050  -6.058  1.00  0.00    -0.385 OA
ATOM     42  H   UNL     1      24.968  19.086  -6.348  1.00  0.00     0.211 HD
ENDBRANCH   4  41
TORSDOF 16
ENDMDL
MODEL 6
REMARK VINA RESULT:    -8.430      2.109      3.839
REMARK INTER + INTRA:         -15.436
REMARK INTER:                 -13.889
REMARK INTRA:                  -1.547
REMARK UNBOUND:                -1.338
REMARK SMILES C[C@@H]1O[C@@H](OC[C@H]2O[C@@H](OCC(O)c3ccc(O)c(O)c3)[C@H](O)[C@@H](O)[C@@H]2O)[C@H](O)[C@H](O)[C@H]1O
REMARK SMILES IDX 7 1 26 2 24 3 22 4 9 5 8 6 6 7 5 8 4 9 2 10 32 11 3 12 30 13
REMARK SMILES IDX 28 14 1 15 33 16 31 18 29 20 27 22 25 24 10 26 11 27 12 28
REMARK SMILES IDX 14 29 21 30 15 31 19 32 16 33 17 34 20 35 18 37 13 39 23 41
REMARK H PARENT 33 17 31 19 29 21 27 23 25 25 20 36 18 38 13 40 23 42
ROOT
ATOM      1  C   UNL     1      27.170  13.933 -10.995  1.00  0.00     0.178 C 
ATOM      2  C   UNL     1      26.080  12.854 -10.913  1.00  0.00     0.177 C 
ATOM      3  C   UNL     1      26.571  11.683 -10.065  1.00  0.00     0.179 C 
ATOM      4  C   UNL     1      27.055  12.178  -8.707  1.00  0.00     0.202 C 
ATOM      5  C   UNL     1      28.111  13.282  -8.904  1.00  0.00     0.282 C 
ATOM      6  O   UNL     1      27.561  14.356  -9.671  1.00  0.00    -0.341 OA
ENDROOT
BRANCH   1   7
ATOM      7  C   UNL     1      26.662  15.153 -11.779  1.00  0.00     0.198 C 
BRANCH   7   8
ATOM      8  O   UNL     1      26.745  16.313 -10.942  1.00  0.00    -0.347 OA
BRANCH   8   9
ATOM      9  C   UNL     1      25.463  16.828 -10.571  1.00  0.00     0.281 C 
ATOM     10  C   UNL     1      26.319  19.025 -10.137  1.00  0.00     0.150 C 
ATOM     11  C   UNL     1      26.017  18.920  -8.633  1.00  0.00     0.174 C 
ATOM     12  O   UNL     1      25.410  18.227 -10.896  1.00  0.00    -0.344 OA
ATOM     13  C   UNL     1      26.062  17.445  -8.206  1.00  0.00     0.179 C 
ATOM     14  C   UNL     1      25.143  16.592  -9.080  1.00  0.00     0.202 C 
ATOM     15  C   UNL     1      26.190  20.458 -10.641  1.00  0.00     0.041 C 
BRANCH  11  16
ATOM     16  O   UNL     1      26.959  19.673  -7.843  1.00  0.00    -0.388 OA
ATOM     17  H   UNL     1      27.829  19.532  -8.266  1.00  0.00     0.211 HD
ENDBRANCH  11  16
BRANCH  13  18
ATOM     18  O   UNL     1      25.639  17.325  -6.836  1.00  0.00    -0.387 OA
ATOM     19  H   UNL     1      24.665  17.234  -6.868  1.00  0.00     0.211 HD
ENDBRANCH  13  18
BRANCH  14  20
ATOM     20  O   UNL     1      23.775  16.921  -8.780  1.00  0.00    -0.385 OA
ATOM     21  H   UNL     1      23.832  17.557  -8.037  1.00  0.00     0.211 HD
ENDBRANCH  14  20
ENDBRANCH   8   9
ENDBRANCH   7   8
ENDBRANCH   1   7
BRANCH   2  22
ATOM     22  O   UNL     1      25.727  12.374 -12.212  1.00  0.00    -0.387 OA
ATOM     23  H   UNL     1      26.454  11.770 -12.469  1.00  0.00     0.211 HD
ENDBRANCH   2  22
BRANCH   3  24
ATOM     24  O   UNL     1      25.501  10.741  -9.903  1.00  0.00    -0.387 OA
ATOM     25  H   UNL     1      25.940   9.871  -9.801  1.00  0.00     0.211 HD
ENDBRANCH   3  24
BRANCH   5  26
ATOM     26  O   UNL     1      28.458  13.733  -7.591  1.00  0.00    -0.347 OA
BRANCH  26  27
ATOM     27  C   UNL     1      28.849  15.108  -7.509  1.00  0.00     0.200 C 
BRANCH  27  28
ATOM     28  C   UNL     1      28.699  15.774  -6.123  1.00  0.00     0.170 C 
BRANCH  28  29
ATOM     29  C   UNL     1      29.808  15.576  -5.106  1.00  0.00    -0.013 A 
ATOM     30  C   UNL     1      31.141  15.733  -5.533  1.00  0.00     0.056 A 
ATOM     31  C   UNL     1      29.580  15.210  -3.768  1.00  0.00     0.010 A 
ATOM     32  C   UNL     1      32.194  15.567  -4.641  1.00  0.00     0.157 A 
ATOM     33  C   UNL     1      30.644  15.022  -2.880  1.00  0.00     0.050 A 
ATOM     34  C   UNL     1      31.944  15.203  -3.324  1.00  0.00     0.157 A 
BRANCH  32  35
ATOM     35  O   UNL     1      33.493  15.778  -5.015  1.00  0.00    -0.504 OA
ATOM     36  H   UNL     1      33.481  16.240  -5.885  1.00  0.00     0.293 HD
ENDBRANCH  32  35
BRANCH  34  37
ATOM     37  O   UNL     1      32.980  15.030  -2.452  1.00  0.00    -0.504 OA
ATOM     38  H   UNL     1      32.667  15.436  -1.619  1.00  0.00     0.293 HD
ENDBRANCH  34  37
ENDBRANCH  28  29
BRANCH  28  39
ATOM     39  O   UNL     1      27.443  15.407  -5.546  1.00  0.00    -0.386 OA
ATOM     40  H   UNL     1      26.805  15.349  -6.290  1.00  0.00     0.211 HD
ENDBRANCH  28  39
ENDBRANCH  27  28
ENDBRANCH  26  27
ENDBRANCH   5  26
BRANCH   4  41
ATOM     41  O   UNL     1      27.587  11.065  -7.971  1.00  0.00    -0.385 OA
ATOM     42  H   UNL     1      26.996  10.963  -7.198  1.00  0.00     0.211 HD
ENDBRANCH   4  41
TORSDOF 16
ENDMDL
MODEL 7
REMARK VINA RESULT:    -8.405      1.236      2.051
REMARK INTER + INTRA:         -15.393
REMARK INTER:                 -14.507
REMARK INTRA:                  -0.886
REMARK UNBOUND:                -1.338
REMARK SMILES C[C@@H]1O[C@@H](OC[C@H]2O[C@@H](OCC(O)c3ccc(O)c(O)c3)[C@H](O)[C@@H](O)[C@@H]2O)[C@H](O)[C@H](O)[C@H]1O
REMARK SMILES IDX 7 1 26 2 24 3 22 4 9 5 8 6 6 7 5 8 4 9 2 10 32 11 3 12 30 13
REMARK SMILES IDX 28 14 1 15 33 16 31 18 29 20 27 22 25 24 10 26 11 27 12 28
REMARK SMILES IDX 14 29 21 30 15 31 19 32 16 33 17 34 20 35 18 37 13 39 23 41
REMARK H PARENT 33 17 31 19 29 21 27 23 25 25 20 36 18 38 13 40 23 42
ROOT
ATOM      1  C   UNL     1      26.612  18.262  -8.554  1.00  0.00     0.178 C 
ATOM      2  C   UNL     1      25.550  17.154  -8.604  1.00  0.00     0.177 C 
ATOM      3  C   UNL     1      26.141  15.898  -9.241  1.00  0.00     0.179 C 
ATOM      4  C   UNL     1      27.423  15.493  -8.525  1.00  0.00     0.202 C 
ATOM      5  C   UNL     1      28.398  16.686  -8.494  1.00  0.00     0.282 C 
ATOM      6  O   UNL     1      27.786  17.804  -7.849  1.00  0.00    -0.341 OA
ENDROOT
BRANCH   1   7
ATOM      7  C   UNL     1      26.058  19.508  -7.844  1.00  0.00     0.198 C 
BRANCH   7   8
ATOM      8  O   UNL     1      25.427  20.354  -8.813  1.00  0.00    -0.347 OA
BRANCH   8   9
ATOM      9  C   UNL     1      26.254  20.619  -9.948  1.00  0.00     0.281 C 
ATOM     10  C   UNL     1      25.781  22.969  -9.918  1.00  0.00     0.150 C 
ATOM     11  C   UNL     1      25.034  22.906 -11.261  1.00  0.00     0.174 C 
ATOM     12  O   UNL     1      26.781  21.952  -9.842  1.00  0.00    -0.344 OA
ATOM     13  C   UNL     1      24.435  21.505 -11.444  1.00  0.00     0.179 C 
ATOM     14  C   UNL     1      25.503  20.424 -11.282  1.00  0.00     0.202 C 
ATOM     15  C   UNL     1      26.484  24.308  -9.724  1.00  0.00     0.041 C 
BRANCH  11  16
ATOM     16  O   UNL     1      23.981  23.888 -11.336  1.00  0.00    -0.388 OA
ATOM     17  H   UNL     1      23.940  24.157 -12.274  1.00  0.00     0.211 HD
ENDBRANCH  11  16
BRANCH  13  18
ATOM     18  O   UNL     1      23.861  21.392 -12.759  1.00  0.00    -0.387 OA
ATOM     19  H   UNL     1      23.789  20.433 -12.935  1.00  0.00     0.211 HD
ENDBRANCH  13  18
BRANCH  14  20
ATOM     20  O   UNL     1      26.403  20.484 -12.403  1.00  0.00    -0.385 OA
ATOM     21  H   UNL     1      26.097  19.773 -13.004  1.00  0.00     0.211 HD
ENDBRANCH  14  20
ENDBRANCH   8   9
ENDBRANCH   7   8
ENDBRANCH   1   7
BRANCH   2  22
ATOM     22  O   UNL     1      24.407  17.566  -9.357  1.00  0.00    -0.387 OA
ATOM     23  H   UNL     1      23.847  16.766  -9.432  1.00  0.00     0.211 HD
ENDBRANCH   2  22
BRANCH   3  24
ATOM     24  O   UNL     1      25.173  14.840  -9.173  1.00  0.00    -0.387 OA
ATOM     25  H   UNL     1      25.206  14.522  -8.248  1.00  0.00     0.211 HD
ENDBRANCH   3  24
BRANCH   5  26
ATOM     26  O   UNL     1      29.538  16.242  -7.751  1.00  0.00    -0.347 OA
BRANCH  26  27
ATOM     27  C   UNL     1      29.260  15.246  -6.759  1.00  0.00     0.200 C 
BRANCH  27  28
ATOM     28  C   UNL     1      29.298  15.724  -5.291  1.00  0.00     0.170 C 
BRANCH  28  29
ATOM     29  C   UNL     1      30.562  15.479  -4.487  1.00  0.00    -0.013 A 
ATOM     30  C   UNL     1      31.804  15.631  -5.134  1.00  0.00     0.056 A 
ATOM     31  C   UNL     1      30.561  15.075  -3.141  1.00  0.00     0.010 A 
ATOM     32  C   UNL     1      32.992  15.422  -4.443  1.00  0.00     0.157 A 
ATOM     33  C   UNL     1      31.760  14.845  -2.456  1.00  0.00     0.050 A 
ATOM     34  C   UNL     1      32.966  15.022  -3.113  1.00  0.00     0.157 A 
BRANCH  32  35
ATOM     35  O   UNL     1      34.211  15.626  -5.031  1.00  0.00    -0.504 OA
ATOM     36  H   UNL     1      34.795  14.876  -4.773  1.00  0.00     0.293 HD
ENDBRANCH  32  35
BRANCH  34  37
ATOM     37  O   UNL     1      34.133  14.806  -2.439  1.00  0.00    -0.504 OA
ATOM     38  H   UNL     1      34.378  13.886  -2.662  1.00  0.00     0.293 HD
ENDBRANCH  34  37
ENDBRANCH  28  29
BRANCH  28  39
ATOM     39  O   UNL     1      28.168  15.203  -4.585  1.00  0.00    -0.386 OA
ATOM     40  H   UNL     1      27.383  15.672  -4.940  1.00  0.00     0.211 HD
ENDBRANCH  28  39
ENDBRANCH  27  28
ENDBRANCH  26  27
ENDBRANCH   5  26
BRANCH   4  41
ATOM     41  O   UNL     1      27.995  14.362  -9.201  1.00  0.00    -0.385 OA
ATOM     42  H   UNL     1      28.544  14.741  -9.916  1.00  0.00     0.211 HD
ENDBRANCH   4  41
TORSDOF 16
ENDMDL
MODEL 8
REMARK VINA RESULT:    -8.257      3.709      7.223
REMARK INTER + INTRA:         -15.146
REMARK INTER:                 -13.971
REMARK INTRA:                  -1.176
REMARK UNBOUND:                -1.338
REMARK SMILES C[C@@H]1O[C@@H](OC[C@H]2O[C@@H](OCC(O)c3ccc(O)c(O)c3)[C@H](O)[C@@H](O)[C@@H]2O)[C@H](O)[C@H](O)[C@H]1O
REMARK SMILES IDX 7 1 26 2 24 3 22 4 9 5 8 6 6 7 5 8 4 9 2 10 32 11 3 12 30 13
REMARK SMILES IDX 28 14 1 15 33 16 31 18 29 20 27 22 25 24 10 26 11 27 12 28
REMARK SMILES IDX 14 29 21 30 15 31 19 32 16 33 17 34 20 35 18 37 13 39 23 41
REMARK H PARENT 33 17 31 19 29 21 27 23 25 25 20 36 18 38 13 40 23 42
ROOT
ATOM      1  C   UNL     1      27.353  14.213  -7.856  1.00  0.00     0.178 C 
ATOM      2  C   UNL     1      26.328  15.161  -8.496  1.00  0.00     0.177 C 
ATOM      3  C   UNL     1      25.596  15.944  -7.407  1.00  0.00     0.179 C 
ATOM      4  C   UNL     1      26.595  16.639  -6.491  1.00  0.00     0.202 C 
ATOM      5  C   UNL     1      27.598  15.608  -5.940  1.00  0.00     0.282 C 
ATOM      6  O   UNL     1      28.268  14.951  -7.017  1.00  0.00    -0.341 OA
ENDROOT
BRANCH   1   7
ATOM      7  C   UNL     1      28.154  13.475  -8.941  1.00  0.00     0.198 C 
BRANCH   7   8
ATOM      8  O   UNL     1      27.352  12.414  -9.473  1.00  0.00    -0.347 OA
BRANCH   8   9
ATOM      9  C   UNL     1      27.730  11.126  -8.980  1.00  0.00     0.281 C 
ATOM     10  C   UNL     1      27.211  10.030 -11.048  1.00  0.00     0.150 C 
ATOM     11  C   UNL     1      26.052   9.240 -10.417  1.00  0.00     0.174 C 
ATOM     12  O   UNL     1      28.212  10.330 -10.074  1.00  0.00    -0.344 OA
ATOM     13  C   UNL     1      25.477  10.034  -9.236  1.00  0.00     0.179 C 
ATOM     14  C   UNL     1      26.575  10.415  -8.243  1.00  0.00     0.202 C 
ATOM     15  C   UNL     1      27.889   9.245 -12.165  1.00  0.00     0.041 C 
BRANCH  11  16
ATOM     16  O   UNL     1      25.002   8.975 -11.369  1.00  0.00    -0.388 OA
ATOM     17  H   UNL     1      25.207   8.099 -11.750  1.00  0.00     0.211 HD
ENDBRANCH  11  16
BRANCH  13  18
ATOM     18  O   UNL     1      24.492   9.239  -8.552  1.00  0.00    -0.387 OA
ATOM     19  H   UNL     1      24.265   9.739  -7.742  1.00  0.00     0.211 HD
ENDBRANCH  13  18
BRANCH  14  20
ATOM     20  O   UNL     1      27.034   9.227  -7.575  1.00  0.00    -0.385 OA
ATOM     21  H   UNL     1      27.099   8.554  -8.285  1.00  0.00     0.211 HD
ENDBRANCH  14  20
ENDBRANCH   8   9
ENDBRANCH   7   8
ENDBRANCH   1   7
BRANCH   2  22
ATOM     22  O   UNL     1      25.372  14.442  -9.276  1.00  0.00    -0.387 OA
ATOM     23  H   UNL     1      25.900  13.934  -9.927  1.00  0.00     0.211 HD
ENDBRANCH   2  22
BRANCH   3  24
ATOM     24  O   UNL     1      24.728  16.906  -8.026  1.00  0.00    -0.387 OA
ATOM     25  H   UNL     1      24.761  16.700  -8.983  1.00  0.00     0.211 HD
ENDBRANCH   3  24
BRANCH   5  26
ATOM     26  O   UNL     1      28.531  16.352  -5.150  1.00  0.00    -0.347 OA
BRANCH  26  27
ATOM     27  C   UNL     1      29.370  15.559  -4.301  1.00  0.00     0.200 C 
BRANCH  27  28
ATOM     28  C   UNL     1      30.728  15.131  -4.899  1.00  0.00     0.170 C 
BRANCH  28  29
ATOM     29  C   UNL     1      31.926  15.039  -3.971  1.00  0.00    -0.013 A 
ATOM     30  C   UNL     1      33.214  15.137  -4.534  1.00  0.00     0.056 A 
ATOM     31  C   UNL     1      31.822  14.827  -2.586  1.00  0.00     0.010 A 
ATOM     32  C   UNL     1      34.344  15.063  -3.728  1.00  0.00     0.157 A 
ATOM     33  C   UNL     1      32.964  14.731  -1.783  1.00  0.00     0.050 A 
ATOM     34  C   UNL     1      34.217  14.851  -2.362  1.00  0.00     0.157 A 
BRANCH  32  35
ATOM     35  O   UNL     1      35.603  15.221  -4.241  1.00  0.00    -0.504 OA
ATOM     36  H   UNL     1      36.227  14.735  -3.654  1.00  0.00     0.293 HD
ENDBRANCH  32  35
BRANCH  34  37
ATOM     37  O   UNL     1      35.328  14.767  -1.574  1.00  0.00    -0.504 OA
ATOM     38  H   UNL     1      35.079  15.232  -0.750  1.00  0.00     0.293 HD
ENDBRANCH  34  37
ENDBRANCH  28  29
BRANCH  28  39
ATOM     39  O   UNL     1      31.046  15.965  -6.017  1.00  0.00    -0.386 OA
ATOM     40  H   UNL     1      31.634  15.434  -6.597  1.00  0.00     0.211 HD
ENDBRANCH  28  39
ENDBRANCH  27  28
ENDBRANCH  26  27
ENDBRANCH   5  26
BRANCH   4  41
ATOM     41  O   UNL     1      25.876  17.294  -5.433  1.00  0.00    -0.385 OA
ATOM     42  H   UNL     1      25.537  18.122  -5.827  1.00  0.00     0.211 HD
ENDBRANCH   4  41
TORSDOF 16
ENDMDL
MODEL 9
REMARK VINA RESULT:    -8.242      3.790      7.365
REMARK INTER + INTRA:         -15.121
REMARK INTER:                 -13.967
REMARK INTRA:                  -1.154
REMARK UNBOUND:                -1.338
REMARK SMILES C[C@@H]1O[C@@H](OC[C@H]2O[C@@H](OCC(O)c3ccc(O)c(O)c3)[C@H](O)[C@@H](O)[C@@H]2O)[C@H](O)[C@H](O)[C@H]1O
REMARK SMILES IDX 7 1 26 2 24 3 22 4 9 5 8 6 6 7 5 8 4 9 2 10 32 11 3 12 30 13
REMARK SMILES IDX 28 14 1 15 33 16 31 18 29 20 27 22 25 24 10 26 11 27 12 28
REMARK SMILES IDX 14 29 21 30 15 31 19 32 16 33 17 34 20 35 18 37 13 39 23 41
REMARK H PARENT 33 17 31 19 29 21 27 23 25 25 20 36 18 38 13 40 23 42
ROOT
ATOM      1  C   UNL     1      27.364  14.206  -7.879  1.00  0.00     0.178 C 
ATOM      2  C   UNL     1      26.274  15.118  -8.460  1.00  0.00     0.177 C 
ATOM      3  C   UNL     1      25.555  15.852  -7.329  1.00  0.00     0.179 C 
ATOM      4  C   UNL     1      26.561  16.576  -6.443  1.00  0.00     0.202 C 
ATOM      5  C   UNL     1      27.629  15.581  -5.951  1.00  0.00     0.282 C 
ATOM      6  O   UNL     1      28.281  14.970  -7.065  1.00  0.00    -0.341 OA
ENDROOT
BRANCH   1   7
ATOM      7  C   UNL     1      28.150  13.520  -9.008  1.00  0.00     0.198 C 
BRANCH   7   8
ATOM      8  O   UNL     1      28.496  12.192  -8.595  1.00  0.00    -0.347 OA
BRANCH   8   9
ATOM      9  C   UNL     1      27.354  11.363  -8.364  1.00  0.00     0.281 C 
ATOM     10  C   UNL     1      28.635   9.338  -8.449  1.00  0.00     0.150 C 
ATOM     11  C   UNL     1      27.936   8.868  -9.735  1.00  0.00     0.174 C 
ATOM     12  O   UNL     1      27.772  10.173  -7.675  1.00  0.00    -0.344 OA
ATOM     13  C   UNL     1      27.463  10.092 -10.533  1.00  0.00     0.179 C 
ATOM     14  C   UNL     1      26.605  11.015  -9.667  1.00  0.00     0.202 C 
ATOM     15  C   UNL     1      29.040   8.164  -7.563  1.00  0.00     0.041 C 
BRANCH  11  16
ATOM     16  O   UNL     1      28.809   8.070 -10.559  1.00  0.00    -0.388 OA
ATOM     17  H   UNL     1      29.207   7.411  -9.959  1.00  0.00     0.211 HD
ENDBRANCH  11  16
BRANCH  13  18
ATOM     18  O   UNL     1      26.681   9.660 -11.661  1.00  0.00    -0.387 OA
ATOM     19  H   UNL     1      25.960   9.113 -11.289  1.00  0.00     0.211 HD
ENDBRANCH  13  18
BRANCH  14  20
ATOM     20  O   UNL     1      25.351  10.366  -9.393  1.00  0.00    -0.385 OA
ATOM     21  H   UNL     1      25.438  10.039  -8.473  1.00  0.00     0.211 HD
ENDBRANCH  14  20
ENDBRANCH   8   9
ENDBRANCH   7   8
ENDBRANCH   1   7
BRANCH   2  22
ATOM     22  O   UNL     1      25.318  14.369  -9.212  1.00  0.00    -0.387 OA
ATOM     23  H   UNL     1      24.608  14.144  -8.576  1.00  0.00     0.211 HD
ENDBRANCH   2  22
BRANCH   3  24
ATOM     24  O   UNL     1      24.622  16.784  -7.895  1.00  0.00    -0.387 OA
ATOM     25  H   UNL     1      24.461  17.444  -7.190  1.00  0.00     0.211 HD
ENDBRANCH   3  24
BRANCH   5  26
ATOM     26  O   UNL     1      28.562  16.353  -5.188  1.00  0.00    -0.347 OA
BRANCH  26  27
ATOM     27  C   UNL     1      29.400  15.590  -4.311  1.00  0.00     0.200 C 
BRANCH  27  28
ATOM     28  C   UNL     1      30.762  15.149  -4.889  1.00  0.00     0.170 C 
BRANCH  28  29
ATOM     29  C   UNL     1      31.947  15.050  -3.946  1.00  0.00    -0.013 A 
ATOM     30  C   UNL     1      33.242  15.153  -4.490  1.00  0.00     0.056 A 
ATOM     31  C   UNL     1      31.824  14.828  -2.564  1.00  0.00     0.010 A 
ATOM     32  C   UNL     1      34.362  15.073  -3.669  1.00  0.00     0.157 A 
ATOM     33  C   UNL     1      32.955  14.727  -1.746  1.00  0.00     0.050 A 
ATOM     34  C   UNL     1      34.216  14.851  -2.306  1.00  0.00     0.157 A 
BRANCH  32  35
ATOM     35  O   UNL     1      35.627  15.236  -4.164  1.00  0.00    -0.504 OA
ATOM     36  H   UNL     1      36.239  14.715  -3.593  1.00  0.00     0.293 HD
ENDBRANCH  32  35
BRANCH  34  37
ATOM     37  O   UNL     1      35.316  14.762  -1.504  1.00  0.00    -0.504 OA
ATOM     38  H   UNL     1      35.239  13.884  -1.080  1.00  0.00     0.293 HD
ENDBRANCH  34  37
ENDBRANCH  28  29
BRANCH  28  39
ATOM     39  O   UNL     1      31.101  15.975  -6.007  1.00  0.00    -0.386 OA
ATOM     40  H   UNL     1      30.844  16.889  -5.760  1.00  0.00     0.211 HD
ENDBRANCH  28  39
ENDBRANCH  27  28
ENDBRANCH  26  27
ENDBRANCH   5  26
BRANCH   4  41
ATOM     41  O   UNL     1      25.859  17.183  -5.345  1.00  0.00    -0.385 OA
ATOM     42  H   UNL     1      25.088  16.603  -5.183  1.00  0.00     0.211 HD
ENDBRANCH   4  41
TORSDOF 16
ENDMDL
