MODEL 1
REMARK VINA RESULT:    -6.535      0.000      0.000
REMARK INTER + INTRA:         -24.595
REMARK INTER:                 -17.422
REMARK INTRA:                  -7.173
REMARK UNBOUND:                -7.173
REMARK SMILES CC(C)C[C@H](NC(=O)[C@@H]1C[C@H](N)CN1C(=O)CC[C@@H](NS(=O)(=O)c1ccc(NC(=O)c2ccc(C(N)=O)cc2)cc1)C(=O)O)C(=O)N(C)[C@@H](CCC(=O)O)C(=O)NCCCCC(N)=O
REMARK SMILES IDX 9 1 10 2 14 3 13 4 11 5 7 6 6 7 8 8 5 10 45 11 46 12 47 13
REMARK SMILES IDX 48 14 49 15 50 16 51 17 52 18 53 19 54 20 55 22 56 23 57 24
REMARK SMILES IDX 58 26 59 27 60 28 61 29 62 30 63 31 64 32 4 35 2 36 1 37
REMARK SMILES IDX 3 38 15 39 16 40 17 41 18 42 19 43 42 44 43 45 44 46 20 48
REMARK SMILES IDX 21 50 22 51 23 52 24 53 41 54 25 55 40 56 26 57 27 58 28 59
REMARK SMILES IDX 29 60 30 61 31 63 39 64 32 65 38 66 33 67 34 68 35 69 37 70
REMARK SMILES IDX 36 71 12 74
REMARK H PARENT 6 9 54 21 57 25 63 33 63 34 44 47 20 49 28 62 36 72 36 73
REMARK H PARENT 12 75 12 76
ROOT
ATOM      1  C   UNL     1      25.092  23.541 -10.945  1.00  0.00     0.176 C 
ATOM      2  C   UNL     1      26.280  24.362 -10.451  1.00  0.00     0.055 C 
ATOM      3  N   UNL     1      25.575  22.156 -11.038  1.00  0.00    -0.329 N 
ATOM      4  C   UNL     1      26.984  22.081 -10.734  1.00  0.00     0.139 C 
ATOM      5  C   UNL     1      27.464  23.511 -10.793  1.00  0.00     0.072 C 
ENDROOT
BRANCH   1   6
ATOM      6  C   UNL     1      24.644  24.106 -12.302  1.00  0.00     0.243 C 
ATOM      7  N   UNL     1      25.321  23.663 -13.365  1.00  0.00    -0.342 N 
ATOM      8  O   UNL     1      23.707  24.911 -12.362  1.00  0.00    -0.273 OA
ATOM      9  H   UNL     1      26.075  22.973 -13.238  1.00  0.00     0.164 HD
BRANCH   7  10
ATOM     10  C   UNL     1      25.004  24.148 -14.705  1.00  0.00     0.171 C 
BRANCH  10  11
ATOM     11  C   UNL     1      24.379  23.187 -15.688  1.00  0.00     0.245 C 
ATOM     12  O   UNL     1      25.092  22.271 -16.067  1.00  0.00    -0.272 OA
BRANCH  11  13
ATOM     13  N   UNL     1      23.097  23.461 -16.116  1.00  0.00    -0.332 N 
ATOM     14  C   UNL     1      22.432  23.091 -17.384  1.00  0.00     0.147 C 
BRANCH  13  15
ATOM     15  C   UNL     1      22.230  24.284 -15.282  1.00  0.00     0.174 C 
BRANCH  15  16
ATOM     16  C   UNL     1      21.526  25.283 -16.217  1.00  0.00     0.047 C 
BRANCH  16  17
ATOM     17  C   UNL     1      21.187  26.509 -15.398  1.00  0.00     0.125 C 
BRANCH  17  18
ATOM     18  C   UNL     1      22.441  27.151 -14.858  1.00  0.00     0.303 C 
ATOM     19  O   UNL     1      23.206  27.741 -15.667  1.00  0.00    -0.252 OA
BRANCH  18  20
ATOM     20  O   UNL     1      22.643  27.055 -13.617  1.00  0.00    -0.481 OA
ATOM     21  H   UNL     1      22.545  26.179 -13.165  1.00  0.00     0.296 HD
ENDBRANCH  18  20
ENDBRANCH  17  18
ENDBRANCH  16  17
ENDBRANCH  15  16
BRANCH  15  22
ATOM     22  C   UNL     1      21.220  23.469 -14.525  1.00  0.00     0.242 C 
ATOM     23  O   UNL     1      20.085  23.228 -14.928  1.00  0.00    -0.273 OA
ATOM     24  N   UNL     1      21.686  23.060 -13.374  1.00  0.00    -0.354 N 
ATOM     25  H   UNL     1      22.659  23.302 -13.140  1.00  0.00     0.163 HD
BRANCH  24  26
ATOM     26  C   UNL     1      20.945  22.302 -12.420  1.00  0.00     0.116 C 
BRANCH  26  27
ATOM     27  C   UNL     1      21.327  22.821 -11.032  1.00  0.00     0.022 C 
BRANCH  27  28
ATOM     28  C   UNL     1      20.422  23.937 -10.430  1.00  0.00     0.012 C 
BRANCH  28  29
ATOM     29  C   UNL     1      21.226  24.902  -9.565  1.00  0.00     0.100 C 
BRANCH  29  30
ATOM     30  C   UNL     1      21.799  26.042 -10.418  1.00  0.00     0.217 C 
ATOM     31  N   UNL     1      23.003  26.524 -10.081  1.00  0.00    -0.370 N 
ATOM     32  O   UNL     1      21.166  26.492 -11.364  1.00  0.00    -0.275 OA
ATOM     33  H   UNL     1      23.423  27.290 -10.627  1.00  0.00     0.159 HD
ATOM     34  H   UNL     1      23.509  26.130  -9.275  1.00  0.00     0.159 HD
ENDBRANCH  29  30
ENDBRANCH  28  29
ENDBRANCH  27  28
ENDBRANCH  26  27
ENDBRANCH  24  26
ENDBRANCH  15  22
ENDBRANCH  13  15
ENDBRANCH  11  13
ENDBRANCH  10  11
BRANCH  10  35
ATOM     35  C   UNL     1      26.315  24.650 -15.315  1.00  0.00     0.038 C 
BRANCH  35  36
ATOM     36  C   UNL     1      26.253  26.145 -15.608  1.00  0.00    -0.015 C 
ATOM     37  C   UNL     1      26.338  26.944 -14.317  1.00  0.00     0.007 C 
ATOM     38  C   UNL     1      27.343  26.532 -16.605  1.00  0.00     0.007 C 
ENDBRANCH  35  36
ENDBRANCH  10  35
ENDBRANCH   7  10
ENDBRANCH   1   6
BRANCH   3  39
ATOM     39  C   UNL     1      24.795  21.165 -11.422  1.00  0.00     0.223 C 
ATOM     40  O   UNL     1      24.598  20.975 -12.592  1.00  0.00    -0.275 OA
BRANCH  39  41
ATOM     41  C   UNL     1      24.141  20.240 -10.408  1.00  0.00     0.102 C 
BRANCH  41  42
ATOM     42  C   UNL     1      24.755  18.863 -10.469  1.00  0.00     0.042 C 
BRANCH  42  43
ATOM     43  C   UNL     1      25.139  18.270  -9.143  1.00  0.00     0.180 C 
BRANCH  43  44
ATOM     44  C   UNL     1      26.196  19.094  -8.461  1.00  0.00     0.321 C 
ATOM     45  O   UNL     1      25.946  19.731  -7.387  1.00  0.00    -0.251 OA
BRANCH  44  46
ATOM     46  O   UNL     1      27.316  19.088  -9.041  1.00  0.00    -0.480 OA
ATOM     47  H   UNL     1      27.389  19.387  -9.982  1.00  0.00     0.296 HD
ENDBRANCH  44  46
ENDBRANCH  43  44
BRANCH  43  48
ATOM     48  N   UNL     1      25.502  16.899  -9.427  1.00  0.00    -0.197 NA
ATOM     49  H   UNL     1      24.860  16.527 -10.141  1.00  0.00     0.142 HD
BRANCH  48  50
ATOM     50  S   UNL     1      25.417  15.958  -8.106  1.00  0.00     0.241 S 
ATOM     51  O   UNL     1      25.011  14.643  -8.617  1.00  0.00    -0.207 OA
ATOM     52  O   UNL     1      24.482  16.490  -7.134  1.00  0.00    -0.207 OA
BRANCH  50  53
ATOM     53  C   UNL     1      26.804  15.874  -7.335  1.00  0.00     0.082 A 
ATOM     54  C   UNL     1      27.977  15.689  -8.024  1.00  0.00     0.024 A 
ATOM     55  C   UNL     1      26.850  15.940  -5.938  1.00  0.00     0.024 A 
ATOM     56  C   UNL     1      29.163  15.608  -7.284  1.00  0.00     0.027 A 
ATOM     57  C   UNL     1      28.043  15.850  -5.200  1.00  0.00     0.027 A 
ATOM     58  C   UNL     1      29.218  15.698  -5.897  1.00  0.00     0.041 A 
BRANCH  58  59
ATOM     59  N   UNL     1      30.441  15.547  -5.354  1.00  0.00    -0.322 N 
ATOM     60  C   UNL     1      30.726  15.337  -4.072  1.00  0.00     0.255 C 
ATOM     61  O   UNL     1      29.892  15.279  -3.193  1.00  0.00    -0.269 OA
ATOM     62  H   UNL     1      31.240  15.600  -6.001  1.00  0.00     0.170 HD
BRANCH  60  63
ATOM     63  C   UNL     1      32.147  15.105  -3.754  1.00  0.00     0.040 A 
ATOM     64  C   UNL     1      33.169  15.362  -4.690  1.00  0.00     0.014 A 
ATOM     65  C   UNL     1      32.449  14.536  -2.557  1.00  0.00     0.014 A 
ATOM     66  C   UNL     1      34.492  15.074  -4.419  1.00  0.00     0.014 A 
ATOM     67  C   UNL     1      33.769  14.251  -2.256  1.00  0.00     0.014 A 
ATOM     68  C   UNL     1      34.784  14.516  -3.190  1.00  0.00     0.039 A 
BRANCH  68  69
ATOM     69  C   UNL     1      36.198  14.173  -2.821  1.00  0.00     0.248 C 
ATOM     70  O   UNL     1      36.577  14.397  -1.707  1.00  0.00    -0.270 OA
ATOM     71  N   UNL     1      37.006  13.592  -3.703  1.00  0.00    -0.366 N 
ATOM     72  H   UNL     1      37.974  13.360  -3.439  1.00  0.00     0.159 HD
ATOM     73  H   UNL     1      36.664  13.374  -4.649  1.00  0.00     0.159 HD
ENDBRANCH  68  69
ENDBRANCH  60  63
ENDBRANCH  58  59
ENDBRANCH  50  53
ENDBRANCH  48  50
ENDBRANCH  43  48
ENDBRANCH  42  43
ENDBRANCH  41  42
ENDBRANCH  39  41
ENDBRANCH   3  39
BRANCH   5  74
ATOM     74  N   UNL     1      27.954  23.802 -12.141  1.00  0.00    -0.326 NA
ATOM     75  H   UNL     1      28.439  24.710 -12.142  1.00  0.00     0.119 HD
ATOM     76  H   UNL     1      28.608  23.063 -12.435  1.00  0.00     0.119 HD
ENDBRANCH   5  74
TORSDOF 30
ENDMDL
MODEL 2
REMARK VINA RESULT:    -6.445      2.049      4.407
REMARK INTER + INTRA:         -24.355
REMARK INTER:                 -19.102
REMARK INTRA:                  -5.253
REMARK UNBOUND:                -7.173
REMARK SMILES CC(C)C[C@H](NC(=O)[C@@H]1C[C@H](N)CN1C(=O)CC[C@@H](NS(=O)(=O)c1ccc(NC(=O)c2ccc(C(N)=O)cc2)cc1)C(=O)O)C(=O)N(C)[C@@H](CCC(=O)O)C(=O)NCCCCC(N)=O
REMARK SMILES IDX 9 1 10 2 14 3 13 4 11 5 7 6 6 7 8 8 5 10 45 11 46 12 47 13
REMARK SMILES IDX 48 14 49 15 50 16 51 17 52 18 53 19 54 20 55 22 56 23 57 24
REMARK SMILES IDX 58 26 59 27 60 28 61 29 62 30 63 31 64 32 4 35 2 36 1 37
REMARK SMILES IDX 3 38 15 39 16 40 17 41 18 42 19 43 42 44 43 45 44 46 20 48
REMARK SMILES IDX 21 50 22 51 23 52 24 53 41 54 25 55 40 56 26 57 27 58 28 59
REMARK SMILES IDX 29 60 30 61 31 63 39 64 32 65 38 66 33 67 34 68 35 69 37 70
REMARK SMILES IDX 36 71 12 74
REMARK H PARENT 6 9 54 21 57 25 63 33 63 34 44 47 20 49 28 62 36 72 36 73
REMARK H PARENT 12 75 12 76
ROOT
ATOM      1  C   UNL     1      24.830  23.143 -10.014  1.00  0.00     0.176 C 
ATOM      2  C   UNL     1      25.749  24.342  -9.792  1.00  0.00     0.055 C 
ATOM      3  N   UNL     1      25.618  22.174 -10.790  1.00  0.00    -0.329 N 
ATOM      4  C   UNL     1      26.907  22.723 -11.141  1.00  0.00     0.139 C 
ATOM      5  C   UNL     1      26.778  24.203 -10.871  1.00  0.00     0.072 C 
ENDROOT
BRANCH   1   6
ATOM      6  C   UNL     1      23.578  23.624 -10.763  1.00  0.00     0.243 C 
ATOM      7  N   UNL     1      23.798  24.207 -11.945  1.00  0.00    -0.342 N 
ATOM      8  O   UNL     1      22.456  23.456 -10.271  1.00  0.00    -0.273 OA
ATOM      9  H   UNL     1      24.761  24.289 -12.301  1.00  0.00     0.164 HD
BRANCH   7  10
ATOM     10  C   UNL     1      22.689  24.728 -12.737  1.00  0.00     0.171 C 
BRANCH  10  11
ATOM     11  C   UNL     1      22.518  24.227 -14.151  1.00  0.00     0.245 C 
ATOM     12  O   UNL     1      23.205  24.774 -14.999  1.00  0.00    -0.272 OA
BRANCH  11  13
ATOM     13  N   UNL     1      21.565  23.254 -14.369  1.00  0.00    -0.332 N 
ATOM     14  C   UNL     1      20.382  23.281 -15.255  1.00  0.00     0.147 C 
BRANCH  13  15
ATOM     15  C   UNL     1      21.627  22.015 -13.604  1.00  0.00     0.174 C 
BRANCH  15  16
ATOM     16  C   UNL     1      20.182  21.509 -13.452  1.00  0.00     0.047 C 
BRANCH  16  17
ATOM     17  C   UNL     1      19.903  21.373 -11.972  1.00  0.00     0.125 C 
BRANCH  17  18
ATOM     18  C   UNL     1      18.787  20.384 -11.731  1.00  0.00     0.303 C 
ATOM     19  O   UNL     1      18.417  19.656 -12.690  1.00  0.00    -0.252 OA
BRANCH  18  20
ATOM     20  O   UNL     1      18.295  20.350 -10.571  1.00  0.00    -0.481 OA
ATOM     21  H   UNL     1      17.590  20.996 -10.313  1.00  0.00     0.296 HD
ENDBRANCH  18  20
ENDBRANCH  17  18
ENDBRANCH  16  17
ENDBRANCH  15  16
BRANCH  15  22
ATOM     22  C   UNL     1      22.483  20.974 -14.269  1.00  0.00     0.242 C 
ATOM     23  O   UNL     1      23.558  21.209 -14.816  1.00  0.00    -0.273 OA
ATOM     24  N   UNL     1      21.939  19.786 -14.213  1.00  0.00    -0.354 N 
ATOM     25  H   UNL     1      21.043  19.694 -13.715  1.00  0.00     0.163 HD
BRANCH  24  26
ATOM     26  C   UNL     1      22.497  18.608 -14.793  1.00  0.00     0.116 C 
BRANCH  26  27
ATOM     27  C   UNL     1      23.015  17.739 -13.646  1.00  0.00     0.022 C 
BRANCH  27  28
ATOM     28  C   UNL     1      23.918  16.532 -14.038  1.00  0.00     0.012 C 
BRANCH  28  29
ATOM     29  C   UNL     1      24.785  16.080 -12.868  1.00  0.00     0.100 C 
BRANCH  29  30
ATOM     30  C   UNL     1      24.003  15.129 -11.952  1.00  0.00     0.217 C 
ATOM     31  N   UNL     1      24.393  15.040 -10.673  1.00  0.00    -0.370 N 
ATOM     32  O   UNL     1      23.065  14.474 -12.388  1.00  0.00    -0.275 OA
ATOM     33  H   UNL     1      23.895  14.413 -10.025  1.00  0.00     0.159 HD
ATOM     34  H   UNL     1      25.190  15.598 -10.337  1.00  0.00     0.159 HD
ENDBRANCH  29  30
ENDBRANCH  28  29
ENDBRANCH  27  28
ENDBRANCH  26  27
ENDBRANCH  24  26
ENDBRANCH  15  22
ENDBRANCH  13  15
ENDBRANCH  11  13
ENDBRANCH  10  11
BRANCH  10  35
ATOM     35  C   UNL     1      22.866  26.247 -12.799  1.00  0.00     0.038 C 
BRANCH  35  36
ATOM     36  C   UNL     1      22.161  26.936 -11.637  1.00  0.00    -0.015 C 
ATOM     37  C   UNL     1      23.178  27.475 -10.643  1.00  0.00     0.007 C 
ATOM     38  C   UNL     1      21.224  28.022 -12.158  1.00  0.00     0.007 C 
ENDBRANCH  35  36
ENDBRANCH  10  35
ENDBRANCH   7  10
ENDBRANCH   1   6
BRANCH   3  39
ATOM     39  C   UNL     1      25.133  21.002 -11.148  1.00  0.00     0.223 C 
ATOM     40  O   UNL     1      25.290  20.606 -12.272  1.00  0.00    -0.275 OA
BRANCH  39  41
ATOM     41  C   UNL     1      24.384  20.124 -10.158  1.00  0.00     0.102 C 
BRANCH  41  42
ATOM     42  C   UNL     1      24.972  18.736 -10.124  1.00  0.00     0.042 C 
BRANCH  42  43
ATOM     43  C   UNL     1      25.337  18.224  -8.760  1.00  0.00     0.180 C 
BRANCH  43  44
ATOM     44  C   UNL     1      26.165  19.225  -8.003  1.00  0.00     0.321 C 
ATOM     45  O   UNL     1      27.344  19.526  -8.380  1.00  0.00    -0.251 OA
BRANCH  44  46
ATOM     46  O   UNL     1      25.593  19.721  -6.996  1.00  0.00    -0.480 OA
ATOM     47  H   UNL     1      25.160  19.129  -6.330  1.00  0.00     0.296 HD
ENDBRANCH  44  46
ENDBRANCH  43  44
BRANCH  43  48
ATOM     48  N   UNL     1      25.963  16.940  -8.986  1.00  0.00    -0.197 NA
ATOM     49  H   UNL     1      25.488  16.473  -9.773  1.00  0.00     0.142 HD
BRANCH  48  50
ATOM     50  S   UNL     1      25.876  15.979  -7.680  1.00  0.00     0.241 S 
ATOM     51  O   UNL     1      25.438  14.680  -8.207  1.00  0.00    -0.207 OA
ATOM     52  O   UNL     1      24.964  16.512  -6.687  1.00  0.00    -0.207 OA
BRANCH  50  53
ATOM     53  C   UNL     1      27.272  15.855  -6.929  1.00  0.00     0.082 A 
ATOM     54  C   UNL     1      28.442  15.762  -7.640  1.00  0.00     0.024 A 
ATOM     55  C   UNL     1      27.328  15.791  -5.533  1.00  0.00     0.024 A 
ATOM     56  C   UNL     1      29.636  15.640  -6.919  1.00  0.00     0.027 A 
ATOM     57  C   UNL     1      28.528  15.660  -4.814  1.00  0.00     0.027 A 
ATOM     58  C   UNL     1      29.701  15.602  -5.529  1.00  0.00     0.041 A 
BRANCH  58  59
ATOM     59  N   UNL     1      30.931  15.429  -5.012  1.00  0.00    -0.322 N 
ATOM     60  C   UNL     1      31.240  15.226  -3.733  1.00  0.00     0.255 C 
ATOM     61  O   UNL     1      30.423  15.197  -2.836  1.00  0.00    -0.269 OA
ATOM     62  H   UNL     1      31.718  15.456  -5.676  1.00  0.00     0.170 HD
BRANCH  60  63
ATOM     63  C   UNL     1      32.661  14.966  -3.443  1.00  0.00     0.040 A 
ATOM     64  C   UNL     1      33.095  14.552  -2.168  1.00  0.00     0.014 A 
ATOM     65  C   UNL     1      33.571  15.231  -4.417  1.00  0.00     0.014 A 
ATOM     66  C   UNL     1      34.434  14.381  -1.875  1.00  0.00     0.014 A 
ATOM     67  C   UNL     1      34.917  15.054  -4.154  1.00  0.00     0.014 A 
ATOM     68  C   UNL     1      35.344  14.634  -2.884  1.00  0.00     0.039 A 
BRANCH  68  69
ATOM     69  C   UNL     1      36.817  14.473  -2.644  1.00  0.00     0.248 C 
ATOM     70  O   UNL     1      37.187  14.000  -1.608  1.00  0.00    -0.270 OA
ATOM     71  N   UNL     1      37.697  14.813  -3.581  1.00  0.00    -0.366 N 
ATOM     72  H   UNL     1      38.705  14.699  -3.407  1.00  0.00     0.159 HD
ATOM     73  H   UNL     1      37.370  15.191  -4.482  1.00  0.00     0.159 HD
ENDBRANCH  68  69
ENDBRANCH  60  63
ENDBRANCH  58  59
ENDBRANCH  50  53
ENDBRANCH  48  50
ENDBRANCH  43  48
ENDBRANCH  42  43
ENDBRANCH  41  42
ENDBRANCH  39  41
ENDBRANCH   3  39
BRANCH   5  74
ATOM     74  N   UNL     1      26.355  24.882 -12.097  1.00  0.00    -0.326 NA
ATOM     75  H   UNL     1      25.696  25.638 -11.861  1.00  0.00     0.119 HD
ATOM     76  H   UNL     1      27.179  25.280 -12.570  1.00  0.00     0.119 HD
ENDBRANCH   5  74
TORSDOF 30
ENDMDL
MODEL 3
REMARK VINA RESULT:    -6.337      1.638      3.597
REMARK INTER + INTRA:         -24.067
REMARK INTER:                 -16.946
REMARK INTRA:                  -7.122
REMARK UNBOUND:                -7.173
REMARK SMILES CC(C)C[C@H](NC(=O)[C@@H]1C[C@H](N)CN1C(=O)CC[C@@H](NS(=O)(=O)c1ccc(NC(=O)c2ccc(C(N)=O)cc2)cc1)C(=O)O)C(=O)N(C)[C@@H](CCC(=O)O)C(=O)NCCCCC(N)=O
REMARK SMILES IDX 9 1 10 2 14 3 13 4 11 5 7 6 6 7 8 8 5 10 45 11 46 12 47 13
REMARK SMILES IDX 48 14 49 15 50 16 51 17 52 18 53 19 54 20 55 22 56 23 57 24
REMARK SMILES IDX 58 26 59 27 60 28 61 29 62 30 63 31 64 32 4 35 2 36 1 37
REMARK SMILES IDX 3 38 15 39 16 40 17 41 18 42 19 43 42 44 43 45 44 46 20 48
REMARK SMILES IDX 21 50 22 51 23 52 24 53 41 54 25 55 40 56 26 57 27 58 28 59
REMARK SMILES IDX 29 60 30 61 31 63 39 64 32 65 38 66 33 67 34 68 35 69 37 70
REMARK SMILES IDX 36 71 12 74
REMARK H PARENT 6 9 54 21 57 25 63 33 63 34 44 47 20 49 28 62 36 72 36 73
REMARK H PARENT 12 75 12 76
ROOT
ATOM      1  C   UNL     1      25.228  22.927 -10.152  1.00  0.00     0.176 C 
ATOM      2  C   UNL     1      26.284  23.951  -9.746  1.00  0.00     0.055 C 
ATOM      3  N   UNL     1      25.905  21.996 -11.067  1.00  0.00    -0.329 N 
ATOM      4  C   UNL     1      27.259  22.424 -11.327  1.00  0.00     0.139 C 
ATOM      5  C   UNL     1      27.310  23.850 -10.832  1.00  0.00     0.072 C 
ENDROOT
BRANCH   1   6
ATOM      6  C   UNL     1      24.062  23.672 -10.820  1.00  0.00     0.243 C 
ATOM      7  N   UNL     1      24.267  24.055 -12.083  1.00  0.00    -0.342 N 
ATOM      8  O   UNL     1      23.015  23.876 -10.194  1.00  0.00    -0.273 OA
ATOM      9  H   UNL     1      25.158  23.827 -12.547  1.00  0.00     0.164 HD
BRANCH   7  10
ATOM     10  C   UNL     1      23.242  24.794 -12.814  1.00  0.00     0.171 C 
BRANCH  10  11
ATOM     11  C   UNL     1      23.090  24.538 -14.295  1.00  0.00     0.245 C 
ATOM     12  O   UNL     1      23.914  25.077 -15.017  1.00  0.00    -0.272 OA
BRANCH  11  13
ATOM     13  N   UNL     1      22.010  23.783 -14.701  1.00  0.00    -0.332 N 
ATOM     14  C   UNL     1      20.887  24.155 -15.588  1.00  0.00     0.147 C 
BRANCH  13  15
ATOM     15  C   UNL     1      21.846  22.435 -14.172  1.00  0.00     0.174 C 
BRANCH  15  16
ATOM     16  C   UNL     1      20.356  22.267 -13.829  1.00  0.00     0.047 C 
BRANCH  16  17
ATOM     17  C   UNL     1      20.259  21.236 -12.726  1.00  0.00     0.125 C 
BRANCH  17  18
ATOM     18  C   UNL     1      20.805  21.790 -11.432  1.00  0.00     0.303 C 
ATOM     19  O   UNL     1      20.173  22.723 -10.867  1.00  0.00    -0.252 OA
BRANCH  18  20
ATOM     20  O   UNL     1      21.869  21.274 -10.994  1.00  0.00    -0.481 OA
ATOM     21  H   UNL     1      22.594  21.853 -10.648  1.00  0.00     0.296 HD
ENDBRANCH  18  20
ENDBRANCH  17  18
ENDBRANCH  16  17
ENDBRANCH  15  16
BRANCH  15  22
ATOM     22  C   UNL     1      22.285  21.380 -15.148  1.00  0.00     0.242 C 
ATOM     23  O   UNL     1      21.546  20.860 -15.981  1.00  0.00    -0.273 OA
ATOM     24  N   UNL     1      23.544  21.064 -14.994  1.00  0.00    -0.354 N 
ATOM     25  H   UNL     1      24.079  21.573 -14.277  1.00  0.00     0.163 HD
BRANCH  24  26
ATOM     26  C   UNL     1      24.230  20.066 -15.746  1.00  0.00     0.116 C 
BRANCH  26  27
ATOM     27  C   UNL     1      25.176  20.790 -16.706  1.00  0.00     0.022 C 
BRANCH  27  28
ATOM     28  C   UNL     1      25.387  22.314 -16.460  1.00  0.00     0.012 C 
BRANCH  28  29
ATOM     29  C   UNL     1      26.863  22.691 -16.527  1.00  0.00     0.100 C 
BRANCH  29  30
ATOM     30  C   UNL     1      27.328  23.290 -15.192  1.00  0.00     0.217 C 
ATOM     31  N   UNL     1      26.600  24.288 -14.672  1.00  0.00    -0.370 N 
ATOM     32  O   UNL     1      28.334  22.867 -14.637  1.00  0.00    -0.275 OA
ATOM     33  H   UNL     1      26.878  24.717 -13.778  1.00  0.00     0.159 HD
ATOM     34  H   UNL     1      25.762  24.626 -15.167  1.00  0.00     0.159 HD
ENDBRANCH  29  30
ENDBRANCH  28  29
ENDBRANCH  27  28
ENDBRANCH  26  27
ENDBRANCH  24  26
ENDBRANCH  15  22
ENDBRANCH  13  15
ENDBRANCH  11  13
ENDBRANCH  10  11
BRANCH  10  35
ATOM     35  C   UNL     1      23.551  26.280 -12.627  1.00  0.00     0.038 C 
BRANCH  35  36
ATOM     36  C   UNL     1      22.356  27.027 -12.045  1.00  0.00    -0.015 C 
ATOM     37  C   UNL     1      21.226  26.059 -11.731  1.00  0.00     0.007 C 
ATOM     38  C   UNL     1      22.784  27.838 -10.824  1.00  0.00     0.007 C 
ENDBRANCH  35  36
ENDBRANCH  10  35
ENDBRANCH   7  10
ENDBRANCH   1   6
BRANCH   3  39
ATOM     39  C   UNL     1      25.285  20.963 -11.603  1.00  0.00     0.223 C 
ATOM     40  O   UNL     1      24.447  21.138 -12.446  1.00  0.00    -0.275 OA
BRANCH  39  41
ATOM     41  C   UNL     1      25.619  19.541 -11.183  1.00  0.00     0.102 C 
BRANCH  41  42
ATOM     42  C   UNL     1      24.588  19.015 -10.215  1.00  0.00     0.042 C 
BRANCH  42  43
ATOM     43  C   UNL     1      25.138  18.378  -8.970  1.00  0.00     0.180 C 
BRANCH  43  44
ATOM     44  C   UNL     1      26.148  19.269  -8.302  1.00  0.00     0.321 C 
ATOM     45  O   UNL     1      27.395  19.020  -8.369  1.00  0.00    -0.251 OA
BRANCH  44  46
ATOM     46  O   UNL     1      25.651  20.254  -7.691  1.00  0.00    -0.480 OA
ATOM     47  H   UNL     1      25.030  20.865  -8.160  1.00  0.00     0.296 HD
ENDBRANCH  44  46
ENDBRANCH  43  44
BRANCH  43  48
ATOM     48  N   UNL     1      25.627  17.082  -9.386  1.00  0.00    -0.197 NA
ATOM     49  H   UNL     1      25.052  16.748 -10.173  1.00  0.00     0.142 HD
BRANCH  48  50
ATOM     50  S   UNL     1      25.558  15.989  -8.187  1.00  0.00     0.241 S 
ATOM     51  O   UNL     1      25.256  14.721  -8.862  1.00  0.00    -0.207 OA
ATOM     52  O   UNL     1      24.558  16.346  -7.199  1.00  0.00    -0.207 OA
BRANCH  50  53
ATOM     53  C   UNL     1      26.921  15.900  -7.374  1.00  0.00     0.082 A 
ATOM     54  C   UNL     1      28.112  15.703  -8.028  1.00  0.00     0.024 A 
ATOM     55  C   UNL     1      26.926  15.971  -5.977  1.00  0.00     0.024 A 
ATOM     56  C   UNL     1      29.275  15.617  -7.252  1.00  0.00     0.027 A 
ATOM     57  C   UNL     1      28.095  15.877  -5.203  1.00  0.00     0.027 A 
ATOM     58  C   UNL     1      29.290  15.714  -5.864  1.00  0.00     0.041 A 
BRANCH  58  59
ATOM     59  N   UNL     1      30.495  15.557  -5.285  1.00  0.00    -0.322 N 
ATOM     60  C   UNL     1      30.738  15.294  -4.003  1.00  0.00     0.255 C 
ATOM     61  O   UNL     1      29.874  15.185  -3.159  1.00  0.00    -0.269 OA
ATOM     62  H   UNL     1      31.316  15.649  -5.899  1.00  0.00     0.170 HD
BRANCH  60  63
ATOM     63  C   UNL     1      32.150  15.069  -3.645  1.00  0.00     0.040 A 
ATOM     64  C   UNL     1      33.193  15.284  -4.567  1.00  0.00     0.014 A 
ATOM     65  C   UNL     1      32.422  14.548  -2.419  1.00  0.00     0.014 A 
ATOM     66  C   UNL     1      34.509  15.001  -4.256  1.00  0.00     0.014 A 
ATOM     67  C   UNL     1      33.733  14.270  -2.077  1.00  0.00     0.014 A 
ATOM     68  C   UNL     1      34.771  14.492  -2.998  1.00  0.00     0.039 A 
BRANCH  68  69
ATOM     69  C   UNL     1      36.174  14.158  -2.584  1.00  0.00     0.248 C 
ATOM     70  O   UNL     1      36.995  15.030  -2.564  1.00  0.00    -0.270 OA
ATOM     71  N   UNL     1      36.494  12.924  -2.208  1.00  0.00    -0.366 N 
ATOM     72  H   UNL     1      37.459  12.705  -1.926  1.00  0.00     0.159 HD
ATOM     73  H   UNL     1      35.775  12.186  -2.199  1.00  0.00     0.159 HD
ENDBRANCH  68  69
ENDBRANCH  60  63
ENDBRANCH  58  59
ENDBRANCH  50  53
ENDBRANCH  48  50
ENDBRANCH  43  48
ENDBRANCH  42  43
ENDBRANCH  41  42
ENDBRANCH  39  41
ENDBRANCH   3  39
BRANCH   5  74
ATOM     74  N   UNL     1      27.002  24.757 -11.939  1.00  0.00    -0.326 NA
ATOM     75  H   UNL     1      27.808  24.803 -12.580  1.00  0.00     0.119 HD
ATOM     76  H   UNL     1      26.178  24.409 -12.449  1.00  0.00     0.119 HD
ENDBRANCH   5  74
TORSDOF 30
ENDMDL
MODEL 4
REMARK VINA RESULT:    -6.311      1.549      4.211
REMARK INTER + INTRA:         -23.998
REMARK INTER:                 -18.406
REMARK INTRA:                  -5.592
REMARK UNBOUND:                -7.173
REMARK SMILES CC(C)C[C@H](NC(=O)[C@@H]1C[C@H](N)CN1C(=O)CC[C@@H](NS(=O)(=O)c1ccc(NC(=O)c2ccc(C(N)=O)cc2)cc1)C(=O)O)C(=O)N(C)[C@@H](CCC(=O)O)C(=O)NCCCCC(N)=O
REMARK SMILES IDX 9 1 10 2 14 3 13 4 11 5 7 6 6 7 8 8 5 10 45 11 46 12 47 13
REMARK SMILES IDX 48 14 49 15 50 16 51 17 52 18 53 19 54 20 55 22 56 23 57 24
REMARK SMILES IDX 58 26 59 27 60 28 61 29 62 30 63 31 64 32 4 35 2 36 1 37
REMARK SMILES IDX 3 38 15 39 16 40 17 41 18 42 19 43 42 44 43 45 44 46 20 48
REMARK SMILES IDX 21 50 22 51 23 52 24 53 41 54 25 55 40 56 26 57 27 58 28 59
REMARK SMILES IDX 29 60 30 61 31 63 39 64 32 65 38 66 33 67 34 68 35 69 37 70
REMARK SMILES IDX 36 71 12 74
REMARK H PARENT 6 9 54 21 57 25 63 33 63 34 44 47 20 49 28 62 36 72 36 73
REMARK H PARENT 12 75 12 76
ROOT
ATOM      1  C   UNL     1      25.776  23.459 -10.425  1.00  0.00     0.176 C 
ATOM      2  C   UNL     1      27.231  23.911 -10.521  1.00  0.00     0.055 C 
ATOM      3  N   UNL     1      25.724  22.141 -11.074  1.00  0.00    -0.329 N 
ATOM      4  C   UNL     1      27.007  21.796 -11.642  1.00  0.00     0.139 C 
ATOM      5  C   UNL     1      27.783  23.091 -11.646  1.00  0.00     0.072 C 
ENDROOT
BRANCH   1   6
ATOM      6  C   UNL     1      24.897  24.502 -11.131  1.00  0.00     0.243 C 
ATOM      7  N   UNL     1      24.209  25.319 -10.328  1.00  0.00    -0.342 N 
ATOM      8  O   UNL     1      24.865  24.554 -12.366  1.00  0.00    -0.273 OA
ATOM      9  H   UNL     1      24.306  25.230  -9.307  1.00  0.00     0.164 HD
BRANCH   7  10
ATOM     10  C   UNL     1      23.320  26.334 -10.883  1.00  0.00     0.171 C 
BRANCH  10  11
ATOM     11  C   UNL     1      23.698  27.787 -10.722  1.00  0.00     0.245 C 
ATOM     12  O   UNL     1      24.455  28.042  -9.797  1.00  0.00    -0.272 OA
BRANCH  11  13
ATOM     13  N   UNL     1      23.113  28.695 -11.579  1.00  0.00    -0.332 N 
ATOM     14  C   UNL     1      22.287  29.881 -11.268  1.00  0.00     0.147 C 
BRANCH  13  15
ATOM     15  C   UNL     1      23.225  28.488 -13.017  1.00  0.00     0.174 C 
BRANCH  15  16
ATOM     16  C   UNL     1      22.110  29.317 -13.678  1.00  0.00     0.047 C 
BRANCH  16  17
ATOM     17  C   UNL     1      22.139  29.017 -15.160  1.00  0.00     0.125 C 
BRANCH  17  18
ATOM     18  C   UNL     1      21.197  27.885 -15.491  1.00  0.00     0.303 C 
ATOM     19  O   UNL     1      19.957  28.091 -15.392  1.00  0.00    -0.252 OA
BRANCH  18  20
ATOM     20  O   UNL     1      21.718  26.795 -15.851  1.00  0.00    -0.481 OA
ATOM     21  H   UNL     1      22.044  26.153 -15.172  1.00  0.00     0.296 HD
ENDBRANCH  18  20
ENDBRANCH  17  18
ENDBRANCH  16  17
ENDBRANCH  15  16
BRANCH  15  22
ATOM     22  C   UNL     1      24.570  28.893 -13.552  1.00  0.00     0.242 C 
ATOM     23  O   UNL     1      25.173  29.907 -13.208  1.00  0.00    -0.273 OA
ATOM     24  N   UNL     1      25.017  28.047 -14.442  1.00  0.00    -0.354 N 
ATOM     25  H   UNL     1      24.441  27.219 -14.645  1.00  0.00     0.163 HD
BRANCH  24  26
ATOM     26  C   UNL     1      26.245  28.189 -15.154  1.00  0.00     0.116 C 
BRANCH  26  27
ATOM     27  C   UNL     1      26.721  26.782 -15.523  1.00  0.00     0.022 C 
BRANCH  27  28
ATOM     28  C   UNL     1      25.614  25.712 -15.762  1.00  0.00     0.012 C 
BRANCH  28  29
ATOM     29  C   UNL     1      26.217  24.338 -16.036  1.00  0.00     0.100 C 
BRANCH  29  30
ATOM     30  C   UNL     1      25.210  23.230 -15.695  1.00  0.00     0.217 C 
ATOM     31  N   UNL     1      25.234  22.731 -14.451  1.00  0.00    -0.370 N 
ATOM     32  O   UNL     1      24.425  22.820 -16.540  1.00  0.00    -0.275 OA
ATOM     33  H   UNL     1      24.576  21.987 -14.182  1.00  0.00     0.159 HD
ATOM     34  H   UNL     1      25.911  23.093 -13.764  1.00  0.00     0.159 HD
ENDBRANCH  29  30
ENDBRANCH  28  29
ENDBRANCH  27  28
ENDBRANCH  26  27
ENDBRANCH  24  26
ENDBRANCH  15  22
ENDBRANCH  13  15
ENDBRANCH  11  13
ENDBRANCH  10  11
BRANCH  10  35
ATOM     35  C   UNL     1      21.954  26.133 -10.224  1.00  0.00     0.038 C 
BRANCH  35  36
ATOM     36  C   UNL     1      21.008  25.355 -11.133  1.00  0.00    -0.015 C 
ATOM     37  C   UNL     1      21.535  25.339 -12.559  1.00  0.00     0.007 C 
ATOM     38  C   UNL     1      20.783  23.950 -10.580  1.00  0.00     0.007 C 
ENDBRANCH  35  36
ENDBRANCH  10  35
ENDBRANCH   7  10
ENDBRANCH   1   6
BRANCH   3  39
ATOM     39  C   UNL     1      24.609  21.443 -11.158  1.00  0.00     0.223 C 
ATOM     40  O   UNL     1      23.920  21.529 -12.139  1.00  0.00    -0.275 OA
BRANCH  39  41
ATOM     41  C   UNL     1      24.177  20.513 -10.035  1.00  0.00     0.102 C 
BRANCH  41  42
ATOM     42  C   UNL     1      24.675  19.111 -10.283  1.00  0.00     0.042 C 
BRANCH  42  43
ATOM     43  C   UNL     1      25.227  18.402  -9.079  1.00  0.00     0.180 C 
BRANCH  43  44
ATOM     44  C   UNL     1      26.346  19.184  -8.449  1.00  0.00     0.321 C 
ATOM     45  O   UNL     1      26.232  19.673  -7.279  1.00  0.00    -0.251 OA
BRANCH  44  46
ATOM     46  O   UNL     1      27.373  19.299  -9.172  1.00  0.00    -0.480 OA
ATOM     47  H   UNL     1      27.309  19.737 -10.057  1.00  0.00     0.296 HD
ENDBRANCH  44  46
ENDBRANCH  43  44
BRANCH  43  48
ATOM     48  N   UNL     1      25.574  17.076  -9.541  1.00  0.00    -0.197 NA
ATOM     49  H   UNL     1      24.918  16.801 -10.285  1.00  0.00     0.142 HD
BRANCH  48  50
ATOM     50  S   UNL     1      25.503  15.975  -8.348  1.00  0.00     0.241 S 
ATOM     51  O   UNL     1      25.224  14.708  -9.035  1.00  0.00    -0.207 OA
ATOM     52  O   UNL     1      24.487  16.315  -7.371  1.00  0.00    -0.207 OA
BRANCH  50  53
ATOM     53  C   UNL     1      26.857  15.896  -7.519  1.00  0.00     0.082 A 
ATOM     54  C   UNL     1      28.058  15.714  -8.159  1.00  0.00     0.024 A 
ATOM     55  C   UNL     1      26.844  15.963  -6.122  1.00  0.00     0.024 A 
ATOM     56  C   UNL     1      29.212  15.637  -7.370  1.00  0.00     0.027 A 
ATOM     57  C   UNL     1      28.005  15.877  -5.334  1.00  0.00     0.027 A 
ATOM     58  C   UNL     1      29.209  15.729  -5.981  1.00  0.00     0.041 A 
BRANCH  58  59
ATOM     59  N   UNL     1      30.408  15.582  -5.388  1.00  0.00    -0.322 N 
ATOM     60  C   UNL     1      30.639  15.329  -4.102  1.00  0.00     0.255 C 
ATOM     61  O   UNL     1      29.766  15.221  -3.266  1.00  0.00    -0.269 OA
ATOM     62  H   UNL     1      31.236  15.675  -5.994  1.00  0.00     0.170 HD
BRANCH  60  63
ATOM     63  C   UNL     1      32.048  15.113  -3.726  1.00  0.00     0.040 A 
ATOM     64  C   UNL     1      33.103  15.373  -4.623  1.00  0.00     0.014 A 
ATOM     65  C   UNL     1      32.308  14.558  -2.513  1.00  0.00     0.014 A 
ATOM     66  C   UNL     1      34.417  15.100  -4.298  1.00  0.00     0.014 A 
ATOM     67  C   UNL     1      33.617  14.289  -2.158  1.00  0.00     0.014 A 
ATOM     68  C   UNL     1      34.666  14.556  -3.053  1.00  0.00     0.039 A 
BRANCH  68  69
ATOM     69  C   UNL     1      36.067  14.229  -2.626  1.00  0.00     0.248 C 
ATOM     70  O   UNL     1      36.932  15.037  -2.810  1.00  0.00    -0.270 OA
ATOM     71  N   UNL     1      36.339  13.079  -2.017  1.00  0.00    -0.366 N 
ATOM     72  H   UNL     1      37.304  12.865  -1.728  1.00  0.00     0.159 HD
ATOM     73  H   UNL     1      35.585  12.402  -1.835  1.00  0.00     0.159 HD
ENDBRANCH  68  69
ENDBRANCH  60  63
ENDBRANCH  58  59
ENDBRANCH  50  53
ENDBRANCH  48  50
ENDBRANCH  43  48
ENDBRANCH  42  43
ENDBRANCH  41  42
ENDBRANCH  39  41
ENDBRANCH   3  39
BRANCH   5  74
ATOM     74  N   UNL     1      27.596  23.763 -12.933  1.00  0.00    -0.326 NA
ATOM     75  H   UNL     1      27.395  23.062 -13.660  1.00  0.00     0.119 HD
ATOM     76  H   UNL     1      26.808  24.422 -12.864  1.00  0.00     0.119 HD
ENDBRANCH   5  74
TORSDOF 30
ENDMDL
MODEL 5
REMARK VINA RESULT:    -6.213      1.936      4.368
REMARK INTER + INTRA:         -23.738
REMARK INTER:                 -19.314
REMARK INTRA:                  -4.424
REMARK UNBOUND:                -7.173
REMARK SMILES CC(C)C[C@H](NC(=O)[C@@H]1C[C@H](N)CN1C(=O)CC[C@@H](NS(=O)(=O)c1ccc(NC(=O)c2ccc(C(N)=O)cc2)cc1)C(=O)O)C(=O)N(C)[C@@H](CCC(=O)O)C(=O)NCCCCC(N)=O
REMARK SMILES IDX 9 1 10 2 14 3 13 4 11 5 7 6 6 7 8 8 5 10 45 11 46 12 47 13
REMARK SMILES IDX 48 14 49 15 50 16 51 17 52 18 53 19 54 20 55 22 56 23 57 24
REMARK SMILES IDX 58 26 59 27 60 28 61 29 62 30 63 31 64 32 4 35 2 36 1 37
REMARK SMILES IDX 3 38 15 39 16 40 17 41 18 42 19 43 42 44 43 45 44 46 20 48
REMARK SMILES IDX 21 50 22 51 23 52 24 53 41 54 25 55 40 56 26 57 27 58 28 59
REMARK SMILES IDX 29 60 30 61 31 63 39 64 32 65 38 66 33 67 34 68 35 69 37 70
REMARK SMILES IDX 36 71 12 74
REMARK H PARENT 6 9 54 21 57 25 63 33 63 34 44 47 20 49 28 62 36 72 36 73
REMARK H PARENT 12 75 12 76
ROOT
ATOM      1  C   UNL     1      25.303  23.217 -10.189  1.00  0.00     0.176 C 
ATOM      2  C   UNL     1      26.161  24.475 -10.080  1.00  0.00     0.055 C 
ATOM      3  N   UNL     1      26.213  22.151 -10.636  1.00  0.00    -0.329 N 
ATOM      4  C   UNL     1      27.531  22.678 -10.900  1.00  0.00     0.139 C 
ATOM      5  C   UNL     1      27.341  24.175 -10.951  1.00  0.00     0.072 C 
ENDROOT
BRANCH   1   6
ATOM      6  C   UNL     1      24.171  23.488 -11.191  1.00  0.00     0.243 C 
ATOM      7  N   UNL     1      22.936  23.500 -10.681  1.00  0.00    -0.342 N 
ATOM      8  O   UNL     1      24.430  23.686 -12.384  1.00  0.00    -0.273 OA
ATOM      9  H   UNL     1      22.801  23.351  -9.671  1.00  0.00     0.164 HD
BRANCH   7  10
ATOM     10  C   UNL     1      21.777  23.722 -11.539  1.00  0.00     0.171 C 
BRANCH  10  11
ATOM     11  C   UNL     1      21.190  25.112 -11.611  1.00  0.00     0.245 C 
ATOM     12  O   UNL     1      20.361  25.386 -10.757  1.00  0.00    -0.272 OA
BRANCH  11  13
ATOM     13  N   UNL     1      21.589  25.916 -12.657  1.00  0.00    -0.332 N 
ATOM     14  C   UNL     1      21.818  25.564 -14.075  1.00  0.00     0.147 C 
BRANCH  13  15
ATOM     15  C   UNL     1      21.911  27.313 -12.398  1.00  0.00     0.174 C 
BRANCH  15  16
ATOM     16  C   UNL     1      23.375  27.355 -11.925  1.00  0.00     0.047 C 
BRANCH  16  17
ATOM     17  C   UNL     1      23.398  28.047 -10.580  1.00  0.00     0.125 C 
BRANCH  17  18
ATOM     18  C   UNL     1      23.637  29.528 -10.749  1.00  0.00     0.303 C 
ATOM     19  O   UNL     1      24.243  29.921 -11.782  1.00  0.00    -0.252 OA
BRANCH  18  20
ATOM     20  O   UNL     1      23.208  30.284  -9.836  1.00  0.00    -0.481 OA
ATOM     21  H   UNL     1      23.672  31.136  -9.639  1.00  0.00     0.296 HD
ENDBRANCH  18  20
ENDBRANCH  17  18
ENDBRANCH  16  17
ENDBRANCH  15  16
BRANCH  15  22
ATOM     22  C   UNL     1      21.725  28.179 -13.611  1.00  0.00     0.242 C 
ATOM     23  O   UNL     1      20.632  28.537 -14.044  1.00  0.00    -0.273 OA
ATOM     24  N   UNL     1      22.866  28.495 -14.167  1.00  0.00    -0.354 N 
ATOM     25  H   UNL     1      23.726  28.158 -13.713  1.00  0.00     0.163 HD
BRANCH  24  26
ATOM     26  C   UNL     1      23.005  29.271 -15.355  1.00  0.00     0.116 C 
BRANCH  26  27
ATOM     27  C   UNL     1      24.322  30.042 -15.243  1.00  0.00     0.022 C 
BRANCH  27  28
ATOM     28  C   UNL     1      25.485  29.329 -14.490  1.00  0.00     0.012 C 
BRANCH  28  29
ATOM     29  C   UNL     1      26.335  28.493 -15.441  1.00  0.00     0.100 C 
BRANCH  29  30
ATOM     30  C   UNL     1      26.657  27.127 -14.818  1.00  0.00     0.217 C 
ATOM     31  N   UNL     1      27.452  26.300 -15.511  1.00  0.00    -0.370 N 
ATOM     32  O   UNL     1      26.190  26.813 -13.731  1.00  0.00    -0.275 OA
ATOM     33  H   UNL     1      27.692  25.375 -15.128  1.00  0.00     0.159 HD
ATOM     34  H   UNL     1      27.823  26.590 -16.427  1.00  0.00     0.159 HD
ENDBRANCH  29  30
ENDBRANCH  28  29
ENDBRANCH  27  28
ENDBRANCH  26  27
ENDBRANCH  24  26
ENDBRANCH  15  22
ENDBRANCH  13  15
ENDBRANCH  11  13
ENDBRANCH  10  11
BRANCH  10  35
ATOM     35  C   UNL     1      20.677  22.777 -11.050  1.00  0.00     0.038 C 
BRANCH  35  36
ATOM     36  C   UNL     1      20.274  21.786 -12.136  1.00  0.00    -0.015 C 
ATOM     37  C   UNL     1      21.475  20.965 -12.579  1.00  0.00     0.007 C 
ATOM     38  C   UNL     1      19.120  20.912 -11.650  1.00  0.00     0.007 C 
ENDBRANCH  35  36
ENDBRANCH  10  35
ENDBRANCH   7  10
ENDBRANCH   1   6
BRANCH   3  39
ATOM     39  C   UNL     1      25.804  20.912 -10.821  1.00  0.00     0.223 C 
ATOM     40  O   UNL     1      25.114  20.642 -11.767  1.00  0.00    -0.275 OA
BRANCH  39  41
ATOM     41  C   UNL     1      26.201  19.801  -9.861  1.00  0.00     0.102 C 
BRANCH  41  42
ATOM     42  C   UNL     1      26.523  18.534 -10.616  1.00  0.00     0.042 C 
BRANCH  42  43
ATOM     43  C   UNL     1      25.670  17.346 -10.270  1.00  0.00     0.180 C 
BRANCH  43  44
ATOM     44  C   UNL     1      24.561  17.160 -11.268  1.00  0.00     0.321 C 
ATOM     45  O   UNL     1      24.286  16.011 -11.742  1.00  0.00    -0.251 OA
BRANCH  44  46
ATOM     46  O   UNL     1      23.952  18.220 -11.574  1.00  0.00    -0.480 OA
ATOM     47  H   UNL     1      24.456  19.063 -11.698  1.00  0.00     0.296 HD
ENDBRANCH  44  46
ENDBRANCH  43  44
BRANCH  43  48
ATOM     48  N   UNL     1      25.251  17.560  -8.902  1.00  0.00    -0.197 NA
ATOM     49  H   UNL     1      25.859  18.274  -8.477  1.00  0.00     0.142 HD
BRANCH  48  50
ATOM     50  S   UNL     1      25.342  16.201  -8.016  1.00  0.00     0.241 S 
ATOM     51  O   UNL     1      25.148  15.117  -8.987  1.00  0.00    -0.207 OA
ATOM     52  O   UNL     1      24.348  16.188  -6.961  1.00  0.00    -0.207 OA
BRANCH  50  53
ATOM     53  C   UNL     1      26.736  16.062  -7.267  1.00  0.00     0.082 A 
ATOM     54  C   UNL     1      27.896  15.877  -7.978  1.00  0.00     0.024 A 
ATOM     55  C   UNL     1      26.800  16.078  -5.869  1.00  0.00     0.024 A 
ATOM     56  C   UNL     1      29.089  15.746  -7.256  1.00  0.00     0.027 A 
ATOM     57  C   UNL     1      28.000  15.937  -5.150  1.00  0.00     0.027 A 
ATOM     58  C   UNL     1      29.163  15.787  -5.867  1.00  0.00     0.041 A 
BRANCH  58  59
ATOM     59  N   UNL     1      30.389  15.591  -5.346  1.00  0.00    -0.322 N 
ATOM     60  C   UNL     1      30.687  15.349  -4.072  1.00  0.00     0.255 C 
ATOM     61  O   UNL     1      29.864  15.298  -3.182  1.00  0.00    -0.269 OA
ATOM     62  H   UNL     1      31.180  15.634  -6.004  1.00  0.00     0.170 HD
BRANCH  60  63
ATOM     63  C   UNL     1      32.105  15.072  -3.780  1.00  0.00     0.040 A 
ATOM     64  C   UNL     1      32.522  14.566  -2.533  1.00  0.00     0.014 A 
ATOM     65  C   UNL     1      33.029  15.412  -4.718  1.00  0.00     0.014 A 
ATOM     66  C   UNL     1      33.856  14.378  -2.233  1.00  0.00     0.014 A 
ATOM     67  C   UNL     1      34.371  15.220  -4.449  1.00  0.00     0.014 A 
ATOM     68  C   UNL     1      34.781  14.708  -3.206  1.00  0.00     0.039 A 
BRANCH  68  69
ATOM     69  C   UNL     1      36.251  14.535  -2.957  1.00  0.00     0.248 C 
ATOM     70  O   UNL     1      36.630  14.354  -1.835  1.00  0.00    -0.270 OA
ATOM     71  N   UNL     1      37.115  14.542  -3.967  1.00  0.00    -0.366 N 
ATOM     72  H   UNL     1      38.121  14.422  -3.785  1.00  0.00     0.159 HD
ATOM     73  H   UNL     1      36.778  14.667  -4.932  1.00  0.00     0.159 HD
ENDBRANCH  68  69
ENDBRANCH  60  63
ENDBRANCH  58  59
ENDBRANCH  50  53
ENDBRANCH  48  50
ENDBRANCH  43  48
ENDBRANCH  42  43
ENDBRANCH  41  42
ENDBRANCH  39  41
ENDBRANCH   3  39
BRANCH   5  74
ATOM     74  N   UNL     1      27.097  24.584 -12.335  1.00  0.00    -0.326 NA
ATOM     75  H   UNL     1      27.592  25.468 -12.524  1.00  0.00     0.119 HD
ATOM     76  H   UNL     1      27.442  23.855 -12.974  1.00  0.00     0.119 HD
ENDBRANCH   5  74
TORSDOF 30
ENDMDL
MODEL 6
REMARK VINA RESULT:    -6.045      1.675      3.109
REMARK INTER + INTRA:         -23.288
REMARK INTER:                 -17.596
REMARK INTRA:                  -5.692
REMARK UNBOUND:                -7.173
REMARK SMILES CC(C)C[C@H](NC(=O)[C@@H]1C[C@H](N)CN1C(=O)CC[C@@H](NS(=O)(=O)c1ccc(NC(=O)c2ccc(C(N)=O)cc2)cc1)C(=O)O)C(=O)N(C)[C@@H](CCC(=O)O)C(=O)NCCCCC(N)=O
REMARK SMILES IDX 9 1 10 2 14 3 13 4 11 5 7 6 6 7 8 8 5 10 45 11 46 12 47 13
REMARK SMILES IDX 48 14 49 15 50 16 51 17 52 18 53 19 54 20 55 22 56 23 57 24
REMARK SMILES IDX 58 26 59 27 60 28 61 29 62 30 63 31 64 32 4 35 2 36 1 37
REMARK SMILES IDX 3 38 15 39 16 40 17 41 18 42 19 43 42 44 43 45 44 46 20 48
REMARK SMILES IDX 21 50 22 51 23 52 24 53 41 54 25 55 40 56 26 57 27 58 28 59
REMARK SMILES IDX 29 60 30 61 31 63 39 64 32 65 38 66 33 67 34 68 35 69 37 70
REMARK SMILES IDX 36 71 12 74
REMARK H PARENT 6 9 54 21 57 25 63 33 63 34 44 47 20 49 28 62 36 72 36 73
REMARK H PARENT 12 75 12 76
ROOT
ATOM      1  C   UNL     1      25.061  23.359 -11.359  1.00  0.00     0.176 C 
ATOM      2  C   UNL     1      26.223  24.294 -11.032  1.00  0.00     0.055 C 
ATOM      3  N   UNL     1      25.580  21.997 -11.174  1.00  0.00    -0.329 N 
ATOM      4  C   UNL     1      26.988  22.022 -10.854  1.00  0.00     0.139 C 
ATOM      5  C   UNL     1      27.432  23.425 -11.193  1.00  0.00     0.072 C 
ENDROOT
BRANCH   1   6
ATOM      6  C   UNL     1      24.613  23.632 -12.803  1.00  0.00     0.243 C 
ATOM      7  N   UNL     1      23.322  23.939 -12.961  1.00  0.00    -0.342 N 
ATOM      8  O   UNL     1      25.429  23.567 -13.730  1.00  0.00    -0.273 OA
ATOM      9  H   UNL     1      22.708  23.997 -12.137  1.00  0.00     0.164 HD
BRANCH   7  10
ATOM     10  C   UNL     1      22.774  24.193 -14.290  1.00  0.00     0.171 C 
BRANCH  10  11
ATOM     11  C   UNL     1      22.801  25.607 -14.821  1.00  0.00     0.245 C 
ATOM     12  O   UNL     1      21.859  26.315 -14.502  1.00  0.00    -0.272 OA
BRANCH  11  13
ATOM     13  N   UNL     1      23.839  25.949 -15.661  1.00  0.00    -0.332 N 
ATOM     14  C   UNL     1      24.326  25.263 -16.878  1.00  0.00     0.147 C 
BRANCH  13  15
ATOM     15  C   UNL     1      24.665  27.105 -15.336  1.00  0.00     0.174 C 
BRANCH  15  16
ATOM     16  C   UNL     1      23.887  28.353 -15.788  1.00  0.00     0.047 C 
BRANCH  16  17
ATOM     17  C   UNL     1      24.657  28.979 -16.930  1.00  0.00     0.125 C 
BRANCH  17  18
ATOM     18  C   UNL     1      25.328  30.254 -16.482  1.00  0.00     0.303 C 
ATOM     19  O   UNL     1      25.578  31.134 -17.350  1.00  0.00    -0.252 OA
BRANCH  18  20
ATOM     20  O   UNL     1      25.597  30.358 -15.255  1.00  0.00    -0.481 OA
ATOM     21  H   UNL     1      25.501  29.574 -14.659  1.00  0.00     0.296 HD
ENDBRANCH  18  20
ENDBRANCH  17  18
ENDBRANCH  16  17
ENDBRANCH  15  16
BRANCH  15  22
ATOM     22  C   UNL     1      24.987  27.186 -13.871  1.00  0.00     0.242 C 
ATOM     23  O   UNL     1      25.996  26.708 -13.357  1.00  0.00    -0.273 OA
ATOM     24  N   UNL     1      24.055  27.810 -13.200  1.00  0.00    -0.354 N 
ATOM     25  H   UNL     1      23.257  28.188 -13.730  1.00  0.00     0.163 HD
BRANCH  24  26
ATOM     26  C   UNL     1      24.062  28.006 -11.787  1.00  0.00     0.116 C 
BRANCH  26  27
ATOM     27  C   UNL     1      22.643  27.733 -11.284  1.00  0.00     0.022 C 
BRANCH  27  28
ATOM     28  C   UNL     1      22.404  26.366 -10.578  1.00  0.00     0.012 C 
BRANCH  28  29
ATOM     29  C   UNL     1      21.068  25.753 -10.986  1.00  0.00     0.100 C 
BRANCH  29  30
ATOM     30  C   UNL     1      20.904  24.356 -10.371  1.00  0.00     0.217 C 
ATOM     31  N   UNL     1      19.854  24.153  -9.563  1.00  0.00    -0.370 N 
ATOM     32  O   UNL     1      21.715  23.471 -10.610  1.00  0.00    -0.275 OA
ATOM     33  H   UNL     1      19.709  23.230  -9.130  1.00  0.00     0.159 HD
ATOM     34  H   UNL     1      19.193  24.920  -9.375  1.00  0.00     0.159 HD
ENDBRANCH  29  30
ENDBRANCH  28  29
ENDBRANCH  27  28
ENDBRANCH  26  27
ENDBRANCH  24  26
ENDBRANCH  15  22
ENDBRANCH  13  15
ENDBRANCH  11  13
ENDBRANCH  10  11
BRANCH  10  35
ATOM     35  C   UNL     1      21.314  23.735 -14.260  1.00  0.00     0.038 C 
BRANCH  35  36
ATOM     36  C   UNL     1      21.186  22.266 -14.649  1.00  0.00    -0.015 C 
ATOM     37  C   UNL     1      22.427  21.803 -15.395  1.00  0.00     0.007 C 
ATOM     38  C   UNL     1      20.899  21.417 -13.413  1.00  0.00     0.007 C 
ENDBRANCH  35  36
ENDBRANCH  10  35
ENDBRANCH   7  10
ENDBRANCH   1   6
BRANCH   3  39
ATOM     39  C   UNL     1      24.830  20.929 -11.357  1.00  0.00     0.223 C 
ATOM     40  O   UNL     1      24.615  20.530 -12.470  1.00  0.00    -0.275 OA
BRANCH  39  41
ATOM     41  C   UNL     1      24.233  20.174 -10.179  1.00  0.00     0.102 C 
BRANCH  41  42
ATOM     42  C   UNL     1      24.702  18.740 -10.172  1.00  0.00     0.042 C 
BRANCH  42  43
ATOM     43  C   UNL     1      25.196  18.231  -8.848  1.00  0.00     0.180 C 
BRANCH  43  44
ATOM     44  C   UNL     1      26.189  19.178  -8.233  1.00  0.00     0.321 C 
ATOM     45  O   UNL     1      25.834  20.024  -7.350  1.00  0.00    -0.251 OA
BRANCH  44  46
ATOM     46  O   UNL     1      27.366  19.052  -8.665  1.00  0.00    -0.480 OA
ATOM     47  H   UNL     1      27.823  19.820  -9.091  1.00  0.00     0.296 HD
ENDBRANCH  44  46
ENDBRANCH  43  44
BRANCH  43  48
ATOM     48  N   UNL     1      25.686  16.895  -9.109  1.00  0.00    -0.197 NA
ATOM     49  H   UNL     1      25.112  16.470  -9.852  1.00  0.00     0.142 HD
BRANCH  48  50
ATOM     50  S   UNL     1      25.618  15.950  -7.790  1.00  0.00     0.241 S 
ATOM     51  O   UNL     1      25.177  14.644  -8.296  1.00  0.00    -0.207 OA
ATOM     52  O   UNL     1      24.717  16.494  -6.793  1.00  0.00    -0.207 OA
BRANCH  50  53
ATOM     53  C   UNL     1      27.023  15.839  -7.055  1.00  0.00     0.082 A 
ATOM     54  C   UNL     1      28.183  15.715  -7.779  1.00  0.00     0.024 A 
ATOM     55  C   UNL     1      27.098  15.818  -5.658  1.00  0.00     0.024 A 
ATOM     56  C   UNL     1      29.385  15.606  -7.070  1.00  0.00     0.027 A 
ATOM     57  C   UNL     1      28.307  15.700  -4.952  1.00  0.00     0.027 A 
ATOM     58  C   UNL     1      29.470  15.610  -5.681  1.00  0.00     0.041 A 
BRANCH  58  59
ATOM     59  N   UNL     1      30.705  15.444  -5.175  1.00  0.00    -0.322 N 
ATOM     60  C   UNL     1      31.028  15.261  -3.897  1.00  0.00     0.255 C 
ATOM     61  O   UNL     1      30.222  15.246  -2.990  1.00  0.00    -0.269 OA
ATOM     62  H   UNL     1      31.484  15.460  -5.849  1.00  0.00     0.170 HD
BRANCH  60  63
ATOM     63  C   UNL     1      32.453  15.003  -3.620  1.00  0.00     0.040 A 
ATOM     64  C   UNL     1      32.899  14.592  -2.348  1.00  0.00     0.014 A 
ATOM     65  C   UNL     1      33.353  15.268  -4.603  1.00  0.00     0.014 A 
ATOM     66  C   UNL     1      34.241  14.424  -2.067  1.00  0.00     0.014 A 
ATOM     67  C   UNL     1      34.702  15.093  -4.352  1.00  0.00     0.014 A 
ATOM     68  C   UNL     1      35.141  14.677  -3.084  1.00  0.00     0.039 A 
BRANCH  68  69
ATOM     69  C   UNL     1      36.617  14.519  -2.858  1.00  0.00     0.248 C 
ATOM     70  O   UNL     1      37.001  14.129  -1.793  1.00  0.00    -0.270 OA
ATOM     71  N   UNL     1      37.482  14.769  -3.836  1.00  0.00    -0.366 N 
ATOM     72  H   UNL     1      38.493  14.658  -3.670  1.00  0.00     0.159 HD
ATOM     73  H   UNL     1      37.143  15.075  -4.758  1.00  0.00     0.159 HD
ENDBRANCH  68  69
ENDBRANCH  60  63
ENDBRANCH  58  59
ENDBRANCH  50  53
ENDBRANCH  48  50
ENDBRANCH  43  48
ENDBRANCH  42  43
ENDBRANCH  41  42
ENDBRANCH  39  41
ENDBRANCH   3  39
BRANCH   5  74
ATOM     74  N   UNL     1      27.928  23.456 -12.570  1.00  0.00    -0.326 NA
ATOM     75  H   UNL     1      28.150  22.498 -12.876  1.00  0.00     0.119 HD
ATOM     76  H   UNL     1      27.205  23.854 -13.186  1.00  0.00     0.119 HD
ENDBRANCH   5  74
TORSDOF 30
ENDMDL
MODEL 7
REMARK VINA RESULT:    -6.021      1.933      4.042
REMARK INTER + INTRA:         -23.226
REMARK INTER:                 -17.687
REMARK INTRA:                  -5.538
REMARK UNBOUND:                -7.173
REMARK SMILES CC(C)C[C@H](NC(=O)[C@@H]1C[C@H](N)CN1C(=O)CC[C@@H](NS(=O)(=O)c1ccc(NC(=O)c2ccc(C(N)=O)cc2)cc1)C(=O)O)C(=O)N(C)[C@@H](CCC(=O)O)C(=O)NCCCCC(N)=O
REMARK SMILES IDX 9 1 10 2 14 3 13 4 11 5 7 6 6 7 8 8 5 10 45 11 46 12 47 13
REMARK SMILES IDX 48 14 49 15 50 16 51 17 52 18 53 19 54 20 55 22 56 23 57 24
REMARK SMILES IDX 58 26 59 27 60 28 61 29 62 30 63 31 64 32 4 35 2 36 1 37
REMARK SMILES IDX 3 38 15 39 16 40 17 41 18 42 19 43 42 44 43 45 44 46 20 48
REMARK SMILES IDX 21 50 22 51 23 52 24 53 41 54 25 55 40 56 26 57 27 58 28 59
REMARK SMILES IDX 29 60 30 61 31 63 39 64 32 65 38 66 33 67 34 68 35 69 37 70
REMARK SMILES IDX 36 71 12 74
REMARK H PARENT 6 9 54 21 57 25 63 33 63 34 44 47 20 49 28 62 36 72 36 73
REMARK H PARENT 12 75 12 76
ROOT
ATOM      1  C   UNL     1      25.459  23.034 -10.262  1.00  0.00     0.176 C 
ATOM      2  C   UNL     1      26.152  24.365  -9.982  1.00  0.00     0.055 C 
ATOM      3  N   UNL     1      26.482  22.172 -10.871  1.00  0.00    -0.329 N 
ATOM      4  C   UNL     1      27.714  22.898 -11.072  1.00  0.00     0.139 C 
ATOM      5  C   UNL     1      27.333  24.350 -10.902  1.00  0.00     0.072 C 
ENDROOT
BRANCH   1   6
ATOM      6  C   UNL     1      24.270  23.296 -11.199  1.00  0.00     0.243 C 
ATOM      7  N   UNL     1      23.091  23.489 -10.600  1.00  0.00    -0.342 N 
ATOM      8  O   UNL     1      24.439  23.325 -12.424  1.00  0.00    -0.273 OA
ATOM      9  H   UNL     1      23.034  23.474  -9.572  1.00  0.00     0.164 HD
BRANCH   7  10
ATOM     10  C   UNL     1      21.885  23.720 -11.387  1.00  0.00     0.171 C 
BRANCH  10  11
ATOM     11  C   UNL     1      21.162  25.037 -11.224  1.00  0.00     0.245 C 
ATOM     12  O   UNL     1      20.266  25.055 -10.394  1.00  0.00    -0.272 OA
BRANCH  11  13
ATOM     13  N   UNL     1      21.527  26.069 -12.062  1.00  0.00    -0.332 N 
ATOM     14  C   UNL     1      21.088  27.481 -12.056  1.00  0.00     0.147 C 
BRANCH  13  15
ATOM     15  C   UNL     1      22.422  25.796 -13.178  1.00  0.00     0.174 C 
BRANCH  15  16
ATOM     16  C   UNL     1      21.629  26.074 -14.467  1.00  0.00     0.047 C 
BRANCH  16  17
ATOM     17  C   UNL     1      21.449  24.753 -15.183  1.00  0.00     0.125 C 
BRANCH  17  18
ATOM     18  C   UNL     1      22.729  24.343 -15.870  1.00  0.00     0.303 C 
ATOM     19  O   UNL     1      23.037  23.121 -15.878  1.00  0.00    -0.252 OA
BRANCH  18  20
ATOM     20  O   UNL     1      23.412  25.260 -16.400  1.00  0.00    -0.481 OA
ATOM     21  H   UNL     1      23.183  25.590 -17.305  1.00  0.00     0.296 HD
ENDBRANCH  18  20
ENDBRANCH  17  18
ENDBRANCH  16  17
ENDBRANCH  15  16
BRANCH  15  22
ATOM     22  C   UNL     1      23.667  26.637 -13.134  1.00  0.00     0.242 C 
ATOM     23  O   UNL     1      24.456  26.653 -12.193  1.00  0.00    -0.273 OA
ATOM     24  N   UNL     1      23.803  27.366 -14.211  1.00  0.00    -0.354 N 
ATOM     25  H   UNL     1      23.093  27.263 -14.949  1.00  0.00     0.163 HD
BRANCH  24  26
ATOM     26  C   UNL     1      24.863  28.293 -14.437  1.00  0.00     0.116 C 
BRANCH  26  27
ATOM     27  C   UNL     1      24.316  29.690 -14.135  1.00  0.00     0.022 C 
BRANCH  27  28
ATOM     28  C   UNL     1      24.780  30.347 -12.802  1.00  0.00     0.012 C 
BRANCH  28  29
ATOM     29  C   UNL     1      23.593  30.839 -11.979  1.00  0.00     0.100 C 
BRANCH  29  30
ATOM     30  C   UNL     1      23.573  30.161 -10.602  1.00  0.00     0.217 C 
ATOM     31  N   UNL     1      24.013  28.897 -10.526  1.00  0.00    -0.370 N 
ATOM     32  O   UNL     1      23.161  30.762  -9.618  1.00  0.00    -0.275 OA
ATOM     33  H   UNL     1      24.016  28.407  -9.620  1.00  0.00     0.159 HD
ATOM     34  H   UNL     1      24.348  28.416 -11.373  1.00  0.00     0.159 HD
ENDBRANCH  29  30
ENDBRANCH  28  29
ENDBRANCH  27  28
ENDBRANCH  26  27
ENDBRANCH  24  26
ENDBRANCH  15  22
ENDBRANCH  13  15
ENDBRANCH  11  13
ENDBRANCH  10  11
BRANCH  10  35
ATOM     35  C   UNL     1      20.903  22.603 -11.030  1.00  0.00     0.038 C 
BRANCH  35  36
ATOM     36  C   UNL     1      20.393  21.892 -12.278  1.00  0.00    -0.015 C 
ATOM     37  C   UNL     1      21.533  21.180 -12.988  1.00  0.00     0.007 C 
ATOM     38  C   UNL     1      19.251  20.945 -11.917  1.00  0.00     0.007 C 
ENDBRANCH  35  36
ENDBRANCH  10  35
ENDBRANCH   7  10
ENDBRANCH   1   6
BRANCH   3  39
ATOM     39  C   UNL     1      26.230  20.929 -11.229  1.00  0.00     0.223 C 
ATOM     40  O   UNL     1      26.115  20.651 -12.392  1.00  0.00    -0.275 OA
BRANCH  39  41
ATOM     41  C   UNL     1      26.090  19.825 -10.193  1.00  0.00     0.102 C 
BRANCH  41  42
ATOM     42  C   UNL     1      26.643  18.524 -10.722  1.00  0.00     0.042 C 
BRANCH  42  43
ATOM     43  C   UNL     1      25.861  17.295 -10.353  1.00  0.00     0.180 C 
BRANCH  43  44
ATOM     44  C   UNL     1      24.749  17.039 -11.331  1.00  0.00     0.321 C 
ATOM     45  O   UNL     1      24.634  17.730 -12.395  1.00  0.00    -0.251 OA
BRANCH  44  46
ATOM     46  O   UNL     1      23.971  16.103 -11.004  1.00  0.00    -0.480 OA
ATOM     47  H   UNL     1      24.264  15.162 -11.092  1.00  0.00     0.296 HD
ENDBRANCH  44  46
ENDBRANCH  43  44
BRANCH  43  48
ATOM     48  N   UNL     1      25.452  17.499  -8.980  1.00  0.00    -0.197 NA
ATOM     49  H   UNL     1      26.074  18.197  -8.548  1.00  0.00     0.142 HD
BRANCH  48  50
ATOM     50  S   UNL     1      25.521  16.128  -8.112  1.00  0.00     0.241 S 
ATOM     51  O   UNL     1      25.370  15.057  -9.105  1.00  0.00    -0.207 OA
ATOM     52  O   UNL     1      24.490  16.092  -7.093  1.00  0.00    -0.207 OA
BRANCH  50  53
ATOM     53  C   UNL     1      26.889  15.987  -7.315  1.00  0.00     0.082 A 
ATOM     54  C   UNL     1      28.067  15.760  -7.983  1.00  0.00     0.024 A 
ATOM     55  C   UNL     1      26.910  16.045  -5.918  1.00  0.00     0.024 A 
ATOM     56  C   UNL     1      29.234  15.630  -7.221  1.00  0.00     0.027 A 
ATOM     57  C   UNL     1      28.084  15.905  -5.157  1.00  0.00     0.027 A 
ATOM     58  C   UNL     1      29.266  15.712  -5.833  1.00  0.00     0.041 A 
BRANCH  58  59
ATOM     59  N   UNL     1      30.472  15.512  -5.268  1.00  0.00    -0.322 N 
ATOM     60  C   UNL     1      30.722  15.257  -3.986  1.00  0.00     0.255 C 
ATOM     61  O   UNL     1      29.866  15.198  -3.128  1.00  0.00    -0.269 OA
ATOM     62  H   UNL     1      31.287  15.560  -5.895  1.00  0.00     0.170 HD
BRANCH  60  63
ATOM     63  C   UNL     1      32.128  14.977  -3.644  1.00  0.00     0.040 A 
ATOM     64  C   UNL     1      32.506  14.533  -2.361  1.00  0.00     0.014 A 
ATOM     65  C   UNL     1      33.079  15.254  -4.575  1.00  0.00     0.014 A 
ATOM     66  C   UNL     1      33.830  14.343  -2.018  1.00  0.00     0.014 A 
ATOM     67  C   UNL     1      34.412  15.057  -4.261  1.00  0.00     0.014 A 
ATOM     68  C   UNL     1      34.783  14.608  -2.983  1.00  0.00     0.039 A 
BRANCH  68  69
ATOM     69  C   UNL     1      36.243  14.427  -2.688  1.00  0.00     0.248 C 
ATOM     70  O   UNL     1      37.012  15.280  -3.027  1.00  0.00    -0.270 OA
ATOM     71  N   UNL     1      36.673  13.358  -2.025  1.00  0.00    -0.366 N 
ATOM     72  H   UNL     1      37.677  13.244  -1.828  1.00  0.00     0.159 HD
ATOM     73  H   UNL     1      36.003  12.643  -1.710  1.00  0.00     0.159 HD
ENDBRANCH  68  69
ENDBRANCH  60  63
ENDBRANCH  58  59
ENDBRANCH  50  53
ENDBRANCH  48  50
ENDBRANCH  43  48
ENDBRANCH  42  43
ENDBRANCH  41  42
ENDBRANCH  39  41
ENDBRANCH   3  39
BRANCH   5  74
ATOM     74  N   UNL     1      26.995  24.917 -12.208  1.00  0.00    -0.326 NA
ATOM     75  H   UNL     1      26.082  25.391 -12.151  1.00  0.00     0.119 HD
ATOM     76  H   UNL     1      27.718  25.596 -12.485  1.00  0.00     0.119 HD
ENDBRANCH   5  74
TORSDOF 30
ENDMDL
MODEL 8
REMARK VINA RESULT:    -5.929      2.427      4.765
REMARK INTER + INTRA:         -22.980
REMARK INTER:                 -18.316
REMARK INTRA:                  -4.664
REMARK UNBOUND:                -7.173
REMARK SMILES CC(C)C[C@H](NC(=O)[C@@H]1C[C@H](N)CN1C(=O)CC[C@@H](NS(=O)(=O)c1ccc(NC(=O)c2ccc(C(N)=O)cc2)cc1)C(=O)O)C(=O)N(C)[C@@H](CCC(=O)O)C(=O)NCCCCC(N)=O
REMARK SMILES IDX 9 1 10 2 14 3 13 4 11 5 7 6 6 7 8 8 5 10 45 11 46 12 47 13
REMARK SMILES IDX 48 14 49 15 50 16 51 17 52 18 53 19 54 20 55 22 56 23 57 24
REMARK SMILES IDX 58 26 59 27 60 28 61 29 62 30 63 31 64 32 4 35 2 36 1 37
REMARK SMILES IDX 3 38 15 39 16 40 17 41 18 42 19 43 42 44 43 45 44 46 20 48
REMARK SMILES IDX 21 50 22 51 23 52 24 53 41 54 25 55 40 56 26 57 27 58 28 59
REMARK SMILES IDX 29 60 30 61 31 63 39 64 32 65 38 66 33 67 34 68 35 69 37 70
REMARK SMILES IDX 36 71 12 74
REMARK H PARENT 6 9 54 21 57 25 63 33 63 34 44 47 20 49 28 62 36 72 36 73
REMARK H PARENT 12 75 12 76
ROOT
ATOM      1  C   UNL     1      24.083  19.295 -14.598  1.00  0.00     0.176 C 
ATOM      2  C   UNL     1      23.512  18.506 -15.774  1.00  0.00     0.055 C 
ATOM      3  N   UNL     1      24.268  18.318 -13.515  1.00  0.00    -0.329 N 
ATOM      4  C   UNL     1      23.767  17.019 -13.901  1.00  0.00     0.139 C 
ATOM      5  C   UNL     1      22.933  17.283 -15.132  1.00  0.00     0.072 C 
ENDROOT
BRANCH   1   6
ATOM      6  C   UNL     1      23.087  20.405 -14.231  1.00  0.00     0.243 C 
ATOM      7  N   UNL     1      22.002  20.012 -13.557  1.00  0.00    -0.342 N 
ATOM      8  O   UNL     1      23.317  21.577 -14.553  1.00  0.00    -0.273 OA
ATOM      9  H   UNL     1      21.892  19.020 -13.304  1.00  0.00     0.164 HD
BRANCH   7  10
ATOM     10  C   UNL     1      20.973  20.973 -13.176  1.00  0.00     0.171 C 
BRANCH  10  11
ATOM     11  C   UNL     1      21.122  21.704 -11.863  1.00  0.00     0.245 C 
ATOM     12  O   UNL     1      20.644  21.149 -10.886  1.00  0.00    -0.272 OA
BRANCH  11  13
ATOM     13  N   UNL     1      21.718  22.947 -11.893  1.00  0.00    -0.332 N 
ATOM     14  C   UNL     1      21.687  23.977 -12.954  1.00  0.00     0.147 C 
BRANCH  13  15
ATOM     15  C   UNL     1      22.572  23.353 -10.783  1.00  0.00     0.174 C 
BRANCH  15  16
ATOM     16  C   UNL     1      24.000  23.483 -11.341  1.00  0.00     0.047 C 
BRANCH  16  17
ATOM     17  C   UNL     1      24.905  22.639 -10.472  1.00  0.00     0.125 C 
BRANCH  17  18
ATOM     18  C   UNL     1      25.529  23.477  -9.383  1.00  0.00     0.303 C 
ATOM     19  O   UNL     1      26.390  24.337  -9.710  1.00  0.00    -0.252 OA
BRANCH  18  20
ATOM     20  O   UNL     1      25.141  23.261  -8.203  1.00  0.00    -0.481 OA
ATOM     21  H   UNL     1      25.804  23.144  -7.477  1.00  0.00     0.296 HD
ENDBRANCH  18  20
ENDBRANCH  17  18
ENDBRANCH  16  17
ENDBRANCH  15  16
BRANCH  15  22
ATOM     22  C   UNL     1      22.128  24.647 -10.163  1.00  0.00     0.242 C 
ATOM     23  O   UNL     1      21.153  24.761  -9.424  1.00  0.00    -0.273 OA
ATOM     24  N   UNL     1      22.893  25.646 -10.517  1.00  0.00    -0.354 N 
ATOM     25  H   UNL     1      23.697  25.440 -11.126  1.00  0.00     0.163 HD
BRANCH  24  26
ATOM     26  C   UNL     1      22.696  27.002 -10.120  1.00  0.00     0.116 C 
BRANCH  26  27
ATOM     27  C   UNL     1      23.690  27.856 -10.911  1.00  0.00     0.022 C 
BRANCH  27  28
ATOM     28  C   UNL     1      23.099  28.733 -12.055  1.00  0.00     0.012 C 
BRANCH  28  29
ATOM     29  C   UNL     1      21.640  28.385 -12.328  1.00  0.00     0.100 C 
BRANCH  29  30
ATOM     30  C   UNL     1      21.203  28.926 -13.697  1.00  0.00     0.217 C 
ATOM     31  N   UNL     1      21.582  30.170 -14.022  1.00  0.00    -0.370 N 
ATOM     32  O   UNL     1      20.525  28.240 -14.450  1.00  0.00    -0.275 OA
ATOM     33  H   UNL     1      21.310  30.570 -14.931  1.00  0.00     0.159 HD
ATOM     34  H   UNL     1      22.146  30.725 -13.364  1.00  0.00     0.159 HD
ENDBRANCH  29  30
ENDBRANCH  28  29
ENDBRANCH  27  28
ENDBRANCH  26  27
ENDBRANCH  24  26
ENDBRANCH  15  22
ENDBRANCH  13  15
ENDBRANCH  11  13
ENDBRANCH  10  11
BRANCH  10  35
ATOM     35  C   UNL     1      19.648  20.209 -13.136  1.00  0.00     0.038 C 
BRANCH  35  36
ATOM     36  C   UNL     1      18.791  20.518 -14.358  1.00  0.00    -0.015 C 
ATOM     37  C   UNL     1      17.327  20.639 -13.965  1.00  0.00     0.007 C 
ATOM     38  C   UNL     1      19.309  21.771 -15.062  1.00  0.00     0.007 C 
ENDBRANCH  35  36
ENDBRANCH  10  35
ENDBRANCH   7  10
ENDBRANCH   1   6
BRANCH   3  39
ATOM     39  C   UNL     1      24.765  18.656 -12.342  1.00  0.00     0.223 C 
ATOM     40  O   UNL     1      25.539  19.572 -12.260  1.00  0.00    -0.275 OA
BRANCH  39  41
ATOM     41  C   UNL     1      24.368  17.915 -11.075  1.00  0.00     0.102 C 
BRANCH  41  42
ATOM     42  C   UNL     1      24.382  18.844  -9.887  1.00  0.00     0.042 C 
BRANCH  42  43
ATOM     43  C   UNL     1      25.166  18.359  -8.700  1.00  0.00     0.180 C 
BRANCH  43  44
ATOM     44  C   UNL     1      26.151  19.395  -8.234  1.00  0.00     0.321 C 
ATOM     45  O   UNL     1      25.762  20.521  -7.785  1.00  0.00    -0.251 OA
BRANCH  44  46
ATOM     46  O   UNL     1      27.359  19.046  -8.330  1.00  0.00    -0.480 OA
ATOM     47  H   UNL     1      27.946  19.071  -7.533  1.00  0.00     0.296 HD
ENDBRANCH  44  46
ENDBRANCH  43  44
BRANCH  43  48
ATOM     48  N   UNL     1      25.735  17.094  -9.108  1.00  0.00    -0.197 NA
ATOM     49  H   UNL     1      25.206  16.737  -9.917  1.00  0.00     0.142 HD
BRANCH  48  50
ATOM     50  S   UNL     1      25.680  15.988  -7.919  1.00  0.00     0.241 S 
ATOM     51  O   UNL     1      25.350  14.731  -8.603  1.00  0.00    -0.207 OA
ATOM     52  O   UNL     1      24.706  16.344  -6.907  1.00  0.00    -0.207 OA
BRANCH  50  53
ATOM     53  C   UNL     1      27.060  15.874  -7.138  1.00  0.00     0.082 A 
ATOM     54  C   UNL     1      28.241  15.737  -7.823  1.00  0.00     0.024 A 
ATOM     55  C   UNL     1      27.089  15.863  -5.739  1.00  0.00     0.024 A 
ATOM     56  C   UNL     1      29.419  15.626  -7.074  1.00  0.00     0.027 A 
ATOM     57  C   UNL     1      28.274  15.744  -4.993  1.00  0.00     0.027 A 
ATOM     58  C   UNL     1      29.459  15.641  -5.683  1.00  0.00     0.041 A 
BRANCH  58  59
ATOM     59  N   UNL     1      30.676  15.471  -5.136  1.00  0.00    -0.322 N 
ATOM     60  C   UNL     1      30.956  15.293  -3.847  1.00  0.00     0.255 C 
ATOM     61  O   UNL     1      30.120  15.287  -2.967  1.00  0.00    -0.269 OA
ATOM     62  H   UNL     1      31.477  15.480  -5.783  1.00  0.00     0.170 HD
BRANCH  60  63
ATOM     63  C   UNL     1      32.369  15.030  -3.521  1.00  0.00     0.040 A 
ATOM     64  C   UNL     1      33.397  15.219  -4.467  1.00  0.00     0.014 A 
ATOM     65  C   UNL     1      32.656  14.498  -2.303  1.00  0.00     0.014 A 
ATOM     66  C   UNL     1      34.711  14.901  -4.186  1.00  0.00     0.014 A 
ATOM     67  C   UNL     1      33.966  14.184  -1.992  1.00  0.00     0.014 A 
ATOM     68  C   UNL     1      34.988  14.382  -2.936  1.00  0.00     0.039 A 
BRANCH  68  69
ATOM     69  C   UNL     1      36.391  14.009  -2.555  1.00  0.00     0.248 C 
ATOM     70  O   UNL     1      37.278  14.781  -2.783  1.00  0.00    -0.270 OA
ATOM     71  N   UNL     1      36.642  12.858  -1.938  1.00  0.00    -0.366 N 
ATOM     72  H   UNL     1      37.609  12.612  -1.681  1.00  0.00     0.159 HD
ATOM     73  H   UNL     1      35.871  12.213  -1.718  1.00  0.00     0.159 HD
ENDBRANCH  68  69
ENDBRANCH  60  63
ENDBRANCH  58  59
ENDBRANCH  50  53
ENDBRANCH  48  50
ENDBRANCH  43  48
ENDBRANCH  42  43
ENDBRANCH  41  42
ENDBRANCH  39  41
ENDBRANCH   3  39
BRANCH   5  74
ATOM     74  N   UNL     1      21.541  17.501 -14.735  1.00  0.00    -0.326 NA
ATOM     75  H   UNL     1      20.967  17.670 -15.573  1.00  0.00     0.119 HD
ATOM     76  H   UNL     1      21.191  16.669 -14.240  1.00  0.00     0.119 HD
ENDBRANCH   5  74
TORSDOF 30
ENDMDL
MODEL 9
REMARK VINA RESULT:    -5.860      2.024      4.104
REMARK INTER + INTRA:         -22.795
REMARK INTER:                 -17.799
REMARK INTRA:                  -4.996
REMARK UNBOUND:                -7.173
REMARK SMILES CC(C)C[C@H](NC(=O)[C@@H]1C[C@H](N)CN1C(=O)CC[C@@H](NS(=O)(=O)c1ccc(NC(=O)c2ccc(C(N)=O)cc2)cc1)C(=O)O)C(=O)N(C)[C@@H](CCC(=O)O)C(=O)NCCCCC(N)=O
REMARK SMILES IDX 9 1 10 2 14 3 13 4 11 5 7 6 6 7 8 8 5 10 45 11 46 12 47 13
REMARK SMILES IDX 48 14 49 15 50 16 51 17 52 18 53 19 54 20 55 22 56 23 57 24
REMARK SMILES IDX 58 26 59 27 60 28 61 29 62 30 63 31 64 32 4 35 2 36 1 37
REMARK SMILES IDX 3 38 15 39 16 40 17 41 18 42 19 43 42 44 43 45 44 46 20 48
REMARK SMILES IDX 21 50 22 51 23 52 24 53 41 54 25 55 40 56 26 57 27 58 28 59
REMARK SMILES IDX 29 60 30 61 31 63 39 64 32 65 38 66 33 67 34 68 35 69 37 70
REMARK SMILES IDX 36 71 12 74
REMARK H PARENT 6 9 54 21 57 25 63 33 63 34 44 47 20 49 28 62 36 72 36 73
REMARK H PARENT 12 75 12 76
ROOT
ATOM      1  C   UNL     1      24.908  20.228 -13.212  1.00  0.00     0.176 C 
ATOM      2  C   UNL     1      26.162  20.748 -13.912  1.00  0.00     0.055 C 
ATOM      3  N   UNL     1      25.085  18.773 -13.106  1.00  0.00    -0.329 N 
ATOM      4  C   UNL     1      26.297  18.352 -13.769  1.00  0.00     0.139 C 
ATOM      5  C   UNL     1      26.705  19.539 -14.608  1.00  0.00     0.072 C 
ENDROOT
BRANCH   1   6
ATOM      6  C   UNL     1      23.686  20.618 -14.057  1.00  0.00     0.243 C 
ATOM      7  N   UNL     1      22.532  20.722 -13.392  1.00  0.00    -0.342 N 
ATOM      8  O   UNL     1      23.808  20.819 -15.271  1.00  0.00    -0.273 OA
ATOM      9  H   UNL     1      22.514  20.563 -12.374  1.00  0.00     0.164 HD
BRANCH   7  10
ATOM     10  C   UNL     1      21.297  21.061 -14.091  1.00  0.00     0.171 C 
BRANCH  10  11
ATOM     11  C   UNL     1      20.814  22.492 -14.048  1.00  0.00     0.245 C 
ATOM     12  O   UNL     1      20.304  22.914 -15.074  1.00  0.00    -0.272 OA
BRANCH  11  13
ATOM     13  N   UNL     1      21.049  23.206 -12.892  1.00  0.00    -0.332 N 
ATOM     14  C   UNL     1      20.857  22.798 -11.484  1.00  0.00     0.147 C 
BRANCH  13  15
ATOM     15  C   UNL     1      21.489  24.591 -12.989  1.00  0.00     0.174 C 
BRANCH  15  16
ATOM     16  C   UNL     1      21.432  25.180 -11.569  1.00  0.00     0.047 C 
BRANCH  16  17
ATOM     17  C   UNL     1      21.518  26.685 -11.698  1.00  0.00     0.125 C 
BRANCH  17  18
ATOM     18  C   UNL     1      22.594  27.235 -10.793  1.00  0.00     0.303 C 
ATOM     19  O   UNL     1      23.168  28.305 -11.129  1.00  0.00    -0.252 OA
BRANCH  18  20
ATOM     20  O   UNL     1      22.848  26.581  -9.745  1.00  0.00    -0.481 OA
ATOM     21  H   UNL     1      23.721  26.695  -9.290  1.00  0.00     0.296 HD
ENDBRANCH  18  20
ENDBRANCH  17  18
ENDBRANCH  16  17
ENDBRANCH  15  16
BRANCH  15  22
ATOM     22  C   UNL     1      22.875  24.714 -13.556  1.00  0.00     0.242 C 
ATOM     23  O   UNL     1      23.143  25.285 -14.610  1.00  0.00    -0.273 OA
ATOM     24  N   UNL     1      23.765  24.124 -12.802  1.00  0.00    -0.354 N 
ATOM     25  H   UNL     1      23.437  23.690 -11.928  1.00  0.00     0.163 HD
BRANCH  24  26
ATOM     26  C   UNL     1      25.157  24.038 -13.101  1.00  0.00     0.116 C 
BRANCH  26  27
ATOM     27  C   UNL     1      25.860  25.146 -12.315  1.00  0.00     0.022 C 
BRANCH  27  28
ATOM     28  C   UNL     1      25.687  25.121 -10.768  1.00  0.00     0.012 C 
BRANCH  28  29
ATOM     29  C   UNL     1      25.983  23.739 -10.195  1.00  0.00     0.100 C 
BRANCH  29  30
ATOM     30  C   UNL     1      24.894  23.325  -9.195  1.00  0.00     0.217 C 
ATOM     31  N   UNL     1      23.646  23.754  -9.424  1.00  0.00    -0.370 N 
ATOM     32  O   UNL     1      25.172  22.634  -8.223  1.00  0.00    -0.275 OA
ATOM     33  H   UNL     1      22.887  23.498  -8.777  1.00  0.00     0.159 HD
ATOM     34  H   UNL     1      23.445  24.339 -10.247  1.00  0.00     0.159 HD
ENDBRANCH  29  30
ENDBRANCH  28  29
ENDBRANCH  27  28
ENDBRANCH  26  27
ENDBRANCH  24  26
ENDBRANCH  15  22
ENDBRANCH  13  15
ENDBRANCH  11  13
ENDBRANCH  10  11
BRANCH  10  35
ATOM     35  C   UNL     1      20.196  20.180 -13.496  1.00  0.00     0.038 C 
BRANCH  35  36
ATOM     36  C   UNL     1      18.933  20.219 -14.349  1.00  0.00    -0.015 C 
ATOM     37  C   UNL     1      18.838  18.974 -15.216  1.00  0.00     0.007 C 
ATOM     38  C   UNL     1      17.704  20.405 -13.462  1.00  0.00     0.007 C 
ENDBRANCH  35  36
ENDBRANCH  10  35
ENDBRANCH   7  10
ENDBRANCH   1   6
BRANCH   3  39
ATOM     39  C   UNL     1      24.187  17.997 -12.532  1.00  0.00     0.223 C 
ATOM     40  O   UNL     1      23.113  17.840 -13.046  1.00  0.00    -0.275 OA
BRANCH  39  41
ATOM     41  C   UNL     1      24.488  17.280 -11.225  1.00  0.00     0.102 C 
BRANCH  41  42
ATOM     42  C   UNL     1      24.452  18.247 -10.066  1.00  0.00     0.042 C 
BRANCH  42  43
ATOM     43  C   UNL     1      25.462  17.992  -8.984  1.00  0.00     0.180 C 
BRANCH  43  44
ATOM     44  C   UNL     1      26.532  19.048  -8.974  1.00  0.00     0.321 C 
ATOM     45  O   UNL     1      27.766  18.737  -8.970  1.00  0.00    -0.251 OA
BRANCH  44  46
ATOM     46  O   UNL     1      26.096  20.231  -8.974  1.00  0.00    -0.480 OA
ATOM     47  H   UNL     1      25.881  20.680  -8.118  1.00  0.00     0.296 HD
ENDBRANCH  44  46
ENDBRANCH  43  44
BRANCH  43  48
ATOM     48  N   UNL     1      25.923  16.638  -9.201  1.00  0.00    -0.197 NA
ATOM     49  H   UNL     1      25.332  16.197  -9.920  1.00  0.00     0.142 HD
BRANCH  48  50
ATOM     50  S   UNL     1      25.852  15.744  -7.846  1.00  0.00     0.241 S 
ATOM     51  O   UNL     1      25.456  14.408  -8.309  1.00  0.00    -0.207 OA
ATOM     52  O   UNL     1      24.917  16.302  -6.890  1.00  0.00    -0.207 OA
BRANCH  50  53
ATOM     53  C   UNL     1      27.244  15.700  -7.080  1.00  0.00     0.082 A 
ATOM     54  C   UNL     1      28.426  15.670  -7.778  1.00  0.00     0.024 A 
ATOM     55  C   UNL     1      27.288  15.642  -5.683  1.00  0.00     0.024 A 
ATOM     56  C   UNL     1      29.616  15.616  -7.043  1.00  0.00     0.027 A 
ATOM     57  C   UNL     1      28.486  15.580  -4.950  1.00  0.00     0.027 A 
ATOM     58  C   UNL     1      29.668  15.585  -5.653  1.00  0.00     0.041 A 
BRANCH  58  59
ATOM     59  N   UNL     1      30.900  15.482  -5.121  1.00  0.00    -0.322 N 
ATOM     60  C   UNL     1      31.204  15.253  -3.846  1.00  0.00     0.255 C 
ATOM     61  O   UNL     1      30.379  15.131  -2.964  1.00  0.00    -0.269 OA
ATOM     62  H   UNL     1      31.692  15.591  -5.770  1.00  0.00     0.170 HD
BRANCH  60  63
ATOM     63  C   UNL     1      32.636  15.086  -3.542  1.00  0.00     0.040 A 
ATOM     64  C   UNL     1      33.628  15.230  -4.533  1.00  0.00     0.014 A 
ATOM     65  C   UNL     1      32.981  14.686  -2.289  1.00  0.00     0.014 A 
ATOM     66  C   UNL     1      34.963  14.998  -4.265  1.00  0.00     0.014 A 
ATOM     67  C   UNL     1      34.313  14.462  -1.991  1.00  0.00     0.014 A 
ATOM     68  C   UNL     1      35.298  14.614  -2.981  1.00  0.00     0.039 A 
BRANCH  68  69
ATOM     69  C   UNL     1      36.727  14.342  -2.611  1.00  0.00     0.248 C 
ATOM     70  O   UNL     1      36.968  13.453  -1.845  1.00  0.00    -0.270 OA
ATOM     71  N   UNL     1      37.714  15.049  -3.153  1.00  0.00    -0.366 N 
ATOM     72  H   UNL     1      38.690  14.855  -2.892  1.00  0.00     0.159 HD
ATOM     73  H   UNL     1      37.501  15.792  -3.833  1.00  0.00     0.159 HD
ENDBRANCH  68  69
ENDBRANCH  60  63
ENDBRANCH  58  59
ENDBRANCH  50  53
ENDBRANCH  48  50
ENDBRANCH  43  48
ENDBRANCH  42  43
ENDBRANCH  41  42
ENDBRANCH  39  41
ENDBRANCH   3  39
BRANCH   5  74
ATOM     74  N   UNL     1      26.136  19.399 -15.950  1.00  0.00    -0.326 NA
ATOM     75  H   UNL     1      25.178  19.777 -15.958  1.00  0.00     0.119 HD
ATOM     76  H   UNL     1      26.716  19.919 -16.624  1.00  0.00     0.119 HD
ENDBRANCH   5  74
TORSDOF 30
ENDMDL
