REMARK SMILES CC(C)C[C@H](NC(=O)[C@@H]1C[C@H](N)CN1C(=O)CC[C@@H](NS(=O)(=O)c1ccc(NC(=O)c2ccc(C(N)=O)cc2)cc1)C(=O)O)C(=O)N(C)[C@@H](CCC(=O)O)C(=O)NCCCCC(N)=O
REMARK SMILES IDX 9 1 10 2 14 3 13 4 11 5 7 6 6 7 8 8 5 10 45 11 46 12 47 13
REMARK SMILES IDX 48 14 49 15 50 16 51 17 52 18 53 19 54 20 55 22 56 23 57 24
REMARK SMILES IDX 58 26 59 27 60 28 61 29 62 30 63 31 64 32 4 35 2 36 1 37
REMARK SMILES IDX 3 38 15 39 16 40 17 41 18 42 19 43 42 44 43 45 44 46 20 48
REMARK SMILES IDX 21 50 22 51 23 52 24 53 41 54 25 55 40 56 26 57 27 58 28 59
REMARK SMILES IDX 29 60 30 61 31 63 39 64 32 65 38 66 33 67 34 68 35 69 37 70
REMARK SMILES IDX 36 71 12 74
REMARK H PARENT 6 9 54 21 57 25 63 33 63 34 44 47 20 49 28 62 36 72 36 73
REMARK H PARENT 12 75 12 76
ROOT
ATOM      1  C   UNL     1      26.118  24.070 -10.323  1.00  0.00     0.176 C 
ATOM      2  C   UNL     1      27.524  24.449 -10.782  1.00  0.00     0.055 C 
ATOM      3  N   UNL     1      25.995  22.625 -10.565  1.00  0.00    -0.329 N 
ATOM      4  C   UNL     1      27.174  22.111 -11.222  1.00  0.00     0.139 C 
ATOM      5  C   UNL     1      27.903  23.339 -11.713  1.00  0.00     0.072 C 
ENDROOT
BRANCH   1   6
ATOM      6  C   UNL     1      25.106  24.895 -11.132  1.00  0.00     0.243 C 
ATOM      7  N   UNL     1      24.423  25.813 -10.442  1.00  0.00    -0.342 N 
ATOM      8  O   UNL     1      24.969  24.695 -12.345  1.00  0.00    -0.273 OA
ATOM      9  H   UNL     1      24.610  25.938  -9.437  1.00  0.00     0.164 HD
BRANCH   7  10
ATOM     10  C   UNL     1      23.415  26.640 -11.097  1.00  0.00     0.171 C 
BRANCH  10  11
ATOM     11  C   UNL     1      23.582  28.141 -11.061  1.00  0.00     0.245 C 
ATOM     12  O   UNL     1      24.287  28.578 -10.165  1.00  0.00    -0.272 OA
BRANCH  11  13
ATOM     13  N   UNL     1      22.881  28.880 -11.990  1.00  0.00    -0.332 N 
ATOM     14  C   UNL     1      22.001  28.418 -13.085  1.00  0.00     0.147 C 
BRANCH  13  15
ATOM     15  C   UNL     1      23.026  30.330 -12.001  1.00  0.00     0.174 C 
BRANCH  15  16
ATOM     16  C   UNL     1      23.993  30.675 -13.147  1.00  0.00     0.047 C 
BRANCH  16  17
ATOM     17  C   UNL     1      25.113  31.506 -12.561  1.00  0.00     0.125 C 
BRANCH  17  18
ATOM     18  C   UNL     1      26.060  31.961 -13.645  1.00  0.00     0.303 C 
ATOM     19  O   UNL     1      26.084  31.315 -14.727  1.00  0.00    -0.252 OA
BRANCH  18  20
ATOM     20  O   UNL     1      26.772  32.971 -13.395  1.00  0.00    -0.481 OA
ATOM     21  H   UNL     1      26.696  33.426 -12.519  1.00  0.00     0.296 HD
ENDBRANCH  18  20
ENDBRANCH  17  18
ENDBRANCH  16  17
ENDBRANCH  15  16
BRANCH  15  22
ATOM     22  C   UNL     1      21.713  31.036 -12.189  1.00  0.00     0.242 C 
ATOM     23  O   UNL     1      21.275  31.402 -13.277  1.00  0.00    -0.273 OA
ATOM     24  N   UNL     1      21.097  31.233 -11.053  1.00  0.00    -0.354 N 
ATOM     25  H   UNL     1      21.543  30.870 -10.199  1.00  0.00     0.163 HD
BRANCH  24  26
ATOM     26  C   UNL     1      19.852  31.914 -10.910  1.00  0.00     0.116 C 
BRANCH  26  27
ATOM     27  C   UNL     1      19.995  32.880  -9.732  1.00  0.00     0.022 C 
BRANCH  27  28
ATOM     28  C   UNL     1      21.303  32.769  -8.894  1.00  0.00     0.012 C 
BRANCH  28  29
ATOM     29  C   UNL     1      22.176  34.009  -9.055  1.00  0.00     0.100 C 
BRANCH  29  30
ATOM     30  C   UNL     1      21.370  35.280  -8.751  1.00  0.00     0.217 C 
ATOM     31  N   UNL     1      21.024  35.505  -7.476  1.00  0.00    -0.370 N 
ATOM     32  O   UNL     1      21.054  36.047  -9.651  1.00  0.00    -0.275 OA
ATOM     33  H   UNL     1      20.483  36.346  -7.230  1.00  0.00     0.159 HD
ATOM     34  H   UNL     1      21.299  34.837  -6.742  1.00  0.00     0.159 HD
ENDBRANCH  29  30
ENDBRANCH  28  29
ENDBRANCH  27  28
ENDBRANCH  26  27
ENDBRANCH  24  26
ENDBRANCH  15  22
ENDBRANCH  13  15
ENDBRANCH  11  13
ENDBRANCH  10  11
BRANCH  10  35
ATOM     35  C   UNL     1      22.074  26.305 -10.441  1.00  0.00     0.038 C 
BRANCH  35  36
ATOM     36  C   UNL     1      21.645  24.876 -10.754  1.00  0.00    -0.015 C 
ATOM     37  C   UNL     1      20.534  24.436  -9.814  1.00  0.00     0.007 C 
ATOM     38  C   UNL     1      21.246  24.755 -12.223  1.00  0.00     0.007 C 
ENDBRANCH  35  36
ENDBRANCH  10  35
ENDBRANCH   7  10
ENDBRANCH   1   6
BRANCH   3  39
ATOM     39  C   UNL     1      24.901  21.954 -10.265  1.00  0.00     0.223 C 
ATOM     40  O   UNL     1      23.980  22.514  -9.734  1.00  0.00    -0.275 OA
BRANCH  39  41
ATOM     41  C   UNL     1      24.772  20.474 -10.590  1.00  0.00     0.102 C 
BRANCH  41  42
ATOM     42  C   UNL     1      24.364  19.693  -9.365  1.00  0.00     0.042 C 
BRANCH  42  43
ATOM     43  C   UNL     1      25.416  18.778  -8.805  1.00  0.00     0.180 C 
BRANCH  43  44
ATOM     44  C   UNL     1      26.629  19.547  -8.360  1.00  0.00     0.321 C 
ATOM     45  O   UNL     1      27.699  19.548  -9.050  1.00  0.00    -0.251 OA
BRANCH  44  46
ATOM     46  O   UNL     1      26.482  20.170  -7.274  1.00  0.00    -0.480 OA
ATOM     47  H   UNL     1      27.229  20.704  -6.904  1.00  0.00     0.296 HD
ENDBRANCH  44  46
ENDBRANCH  43  44
BRANCH  43  48
ATOM     48  N   UNL     1      25.647  17.786  -9.832  1.00  0.00    -0.197 NA
ATOM     49  H   UNL     1      24.839  17.775 -10.471  1.00  0.00     0.142 HD
BRANCH  48  50
ATOM     50  S   UNL     1      25.843  16.298  -9.211  1.00  0.00     0.241 S 
ATOM     51  O   UNL     1      25.989  15.427 -10.384  1.00  0.00    -0.207 OA
ATOM     52  O   UNL     1      24.722  15.920  -8.373  1.00  0.00    -0.207 OA
BRANCH  50  53
ATOM     53  C   UNL     1      27.114  16.204  -8.261  1.00  0.00     0.082 A 
ATOM     54  C   UNL     1      28.382  16.217  -8.787  1.00  0.00     0.024 A 
ATOM     55  C   UNL     1      26.962  16.058  -6.878  1.00  0.00     0.024 A 
ATOM     56  C   UNL     1      29.458  16.115  -7.897  1.00  0.00     0.027 A 
ATOM     57  C   UNL     1      28.046  15.948  -5.990  1.00  0.00     0.027 A 
ATOM     58  C   UNL     1      29.315  15.996  -6.518  1.00  0.00     0.041 A 
BRANCH  58  59
ATOM     59  N   UNL     1      30.461  15.858  -5.826  1.00  0.00    -0.322 N 
ATOM     60  C   UNL     1      30.585  15.547  -4.538  1.00  0.00     0.255 C 
ATOM     61  O   UNL     1      29.646  15.368  -3.791  1.00  0.00    -0.269 OA
ATOM     62  H   UNL     1      31.335  16.009  -6.349  1.00  0.00     0.170 HD
BRANCH  60  63
ATOM     63  C   UNL     1      31.962  15.359  -4.047  1.00  0.00     0.040 A 
ATOM     64  C   UNL     1      33.081  15.773  -4.797  1.00  0.00     0.014 A 
ATOM     65  C   UNL     1      32.138  14.679  -2.883  1.00  0.00     0.014 A 
ATOM     66  C   UNL     1      34.372  15.529  -4.372  1.00  0.00     0.014 A 
ATOM     67  C   UNL     1      33.421  14.435  -2.428  1.00  0.00     0.014 A 
ATOM     68  C   UNL     1      34.533  14.856  -3.176  1.00  0.00     0.039 A 
BRANCH  68  69
ATOM     69  C   UNL     1      35.904  14.551  -2.647  1.00  0.00     0.248 C 
ATOM     70  O   UNL     1      36.742  15.406  -2.683  1.00  0.00    -0.270 OA
ATOM     71  N   UNL     1      36.175  13.365  -2.111  1.00  0.00    -0.366 N 
ATOM     72  H   UNL     1      37.119  13.166  -1.751  1.00  0.00     0.159 HD
ATOM     73  H   UNL     1      35.441  12.645  -2.056  1.00  0.00     0.159 HD
ENDBRANCH  68  69
ENDBRANCH  60  63
ENDBRANCH  58  59
ENDBRANCH  50  53
ENDBRANCH  48  50
ENDBRANCH  43  48
ENDBRANCH  42  43
ENDBRANCH  41  42
ENDBRANCH  39  41
ENDBRANCH   3  39
BRANCH   5  74
ATOM     74  N   UNL     1      27.486  23.632 -13.085  1.00  0.00    -0.326 NA
ATOM     75  H   UNL     1      26.643  24.224 -13.069  1.00  0.00     0.119 HD
ATOM     76  H   UNL     1      28.244  24.127 -13.576  1.00  0.00     0.119 HD
ENDBRANCH   5  74
TORSDOF 30
