MODEL 1
REMARK VINA RESULT:    -9.626      0.000      0.000
REMARK INTER + INTRA:         -30.316
REMARK INTER:                 -25.664
REMARK INTRA:                  -4.652
REMARK UNBOUND:                -4.652
REMARK SMILES CC(C)C[C@H](NC(=O)[C@@H]1C[C@H](N)CN1C(=O)CC[C@@H](NS(=O)(=O)c1ccc(NC(=O)c2ccc(C(N)=O)cc2)cc1)C(=O)O)C(=O)N(C)[C@@H](CCC(=O)O)C(=O)NCCCCC(N)=O
REMARK SMILES IDX 9 1 10 2 14 3 13 4 11 5 7 6 6 7 8 8 5 10 45 11 46 12 47 13
REMARK SMILES IDX 48 14 49 15 50 16 51 17 52 18 53 19 54 20 55 22 56 23 57 24
REMARK SMILES IDX 58 26 59 27 60 28 61 29 62 30 63 31 64 32 4 35 2 36 1 37
REMARK SMILES IDX 3 38 15 39 16 40 17 41 18 42 19 43 42 44 43 45 44 46 20 48
REMARK SMILES IDX 21 50 22 51 23 52 24 53 41 54 25 55 40 56 26 57 27 58 28 59
REMARK SMILES IDX 29 60 30 61 31 63 39 64 32 65 38 66 33 67 34 68 35 69 37 70
REMARK SMILES IDX 36 71 12 74
REMARK H PARENT 6 9 54 21 57 25 63 33 63 34 44 47 20 49 28 62 36 72 36 73
REMARK H PARENT 12 75 12 76
ROOT
ATOM      1  C   UNL     1      25.276  23.052  -9.859  1.00  0.00     0.176 C 
ATOM      2  C   UNL     1      26.240  24.205  -9.590  1.00  0.00     0.055 C 
ATOM      3  N   UNL     1      26.017  22.099 -10.699  1.00  0.00    -0.329 N 
ATOM      4  C   UNL     1      27.319  22.621 -11.043  1.00  0.00     0.139 C 
ATOM      5  C   UNL     1      27.246  24.088 -10.694  1.00  0.00     0.072 C 
ENDROOT
BRANCH   1   6
ATOM      6  C   UNL     1      24.030  23.615 -10.559  1.00  0.00     0.243 C 
ATOM      7  N   UNL     1      24.175  23.903 -11.856  1.00  0.00    -0.342 N 
ATOM      8  O   UNL     1      22.978  23.769  -9.927  1.00  0.00    -0.273 OA
ATOM      9  H   UNL     1      25.077  23.724 -12.320  1.00  0.00     0.164 HD
BRANCH   7  10
ATOM     10  C   UNL     1      23.069  24.469 -12.621  1.00  0.00     0.171 C 
BRANCH  10  11
ATOM     11  C   UNL     1      22.802  23.928 -14.007  1.00  0.00     0.245 C 
ATOM     12  O   UNL     1      23.603  24.253 -14.869  1.00  0.00    -0.272 OA
BRANCH  11  13
ATOM     13  N   UNL     1      21.659  23.179 -14.187  1.00  0.00    -0.332 N 
ATOM     14  C   UNL     1      20.506  23.428 -15.078  1.00  0.00     0.147 C 
BRANCH  13  15
ATOM     15  C   UNL     1      21.453  21.989 -13.371  1.00  0.00     0.174 C 
BRANCH  15  16
ATOM     16  C   UNL     1      19.967  21.972 -12.971  1.00  0.00     0.047 C 
BRANCH  16  17
ATOM     17  C   UNL     1      19.858  21.224 -11.661  1.00  0.00     0.125 C 
BRANCH  17  18
ATOM     18  C   UNL     1      18.711  20.243 -11.703  1.00  0.00     0.303 C 
ATOM     19  O   UNL     1      18.438  19.691 -12.802  1.00  0.00    -0.252 OA
BRANCH  18  20
ATOM     20  O   UNL     1      18.097  20.036 -10.621  1.00  0.00    -0.481 OA
ATOM     21  H   UNL     1      17.837  20.799 -10.046  1.00  0.00     0.296 HD
ENDBRANCH  18  20
ENDBRANCH  17  18
ENDBRANCH  16  17
ENDBRANCH  15  16
BRANCH  15  22
ATOM     22  C   UNL     1      21.818  20.726 -14.097  1.00  0.00     0.242 C 
ATOM     23  O   UNL     1      21.108  20.184 -14.940  1.00  0.00    -0.273 OA
ATOM     24  N   UNL     1      22.976  20.258 -13.711  1.00  0.00    -0.354 N 
ATOM     25  H   UNL     1      23.500  20.799 -13.010  1.00  0.00     0.163 HD
BRANCH  24  26
ATOM     26  C   UNL     1      23.567  19.052 -14.192  1.00  0.00     0.116 C 
BRANCH  26  27
ATOM     27  C   UNL     1      23.206  17.943 -13.201  1.00  0.00     0.022 C 
BRANCH  27  28
ATOM     28  C   UNL     1      23.978  16.598 -13.347  1.00  0.00     0.012 C 
BRANCH  28  29
ATOM     29  C   UNL     1      23.967  15.804 -12.046  1.00  0.00     0.100 C 
BRANCH  29  30
ATOM     30  C   UNL     1      25.181  14.868 -11.974  1.00  0.00     0.217 C 
ATOM     31  N   UNL     1      25.282  14.062 -10.908  1.00  0.00    -0.370 N 
ATOM     32  O   UNL     1      26.025  14.873 -12.862  1.00  0.00    -0.275 OA
ATOM     33  H   UNL     1      26.082  13.419 -10.822  1.00  0.00     0.159 HD
ATOM     34  H   UNL     1      24.560  14.086 -10.174  1.00  0.00     0.159 HD
ENDBRANCH  29  30
ENDBRANCH  28  29
ENDBRANCH  27  28
ENDBRANCH  26  27
ENDBRANCH  24  26
ENDBRANCH  15  22
ENDBRANCH  13  15
ENDBRANCH  11  13
ENDBRANCH  10  11
BRANCH  10  35
ATOM     35  C   UNL     1      23.343  25.968 -12.752  1.00  0.00     0.038 C 
BRANCH  35  36
ATOM     36  C   UNL     1      22.119  26.791 -12.366  1.00  0.00    -0.015 C 
ATOM     37  C   UNL     1      21.090  25.918 -11.664  1.00  0.00     0.007 C 
ATOM     38  C   UNL     1      22.536  27.993 -11.521  1.00  0.00     0.007 C 
ENDBRANCH  35  36
ENDBRANCH  10  35
ENDBRANCH   7  10
ENDBRANCH   1   6
BRANCH   3  39
ATOM     39  C   UNL     1      25.485  20.965 -11.110  1.00  0.00     0.223 C 
ATOM     40  O   UNL     1      25.709  20.566 -12.221  1.00  0.00    -0.275 OA
BRANCH  39  41
ATOM     41  C   UNL     1      24.596  20.136 -10.196  1.00  0.00     0.102 C 
BRANCH  41  42
ATOM     42  C   UNL     1      25.068  18.704 -10.150  1.00  0.00     0.042 C 
BRANCH  42  43
ATOM     43  C   UNL     1      25.400  18.179  -8.781  1.00  0.00     0.180 C 
BRANCH  43  44
ATOM     44  C   UNL     1      26.284  19.136  -8.029  1.00  0.00     0.321 C 
ATOM     45  O   UNL     1      27.372  19.563  -8.533  1.00  0.00    -0.251 OA
BRANCH  44  46
ATOM     46  O   UNL     1      25.850  19.460  -6.890  1.00  0.00    -0.480 OA
ATOM     47  H   UNL     1      24.929  19.217  -6.623  1.00  0.00     0.296 HD
ENDBRANCH  44  46
ENDBRANCH  43  44
BRANCH  43  48
ATOM     48  N   UNL     1      25.951  16.860  -9.000  1.00  0.00    -0.197 NA
ATOM     49  H   UNL     1      25.425  16.402  -9.758  1.00  0.00     0.142 HD
BRANCH  48  50
ATOM     50  S   UNL     1      25.863  15.933  -7.669  1.00  0.00     0.241 S 
ATOM     51  O   UNL     1      25.422  14.623  -8.163  1.00  0.00    -0.207 OA
ATOM     52  O   UNL     1      24.953  16.494  -6.690  1.00  0.00    -0.207 OA
BRANCH  50  53
ATOM     53  C   UNL     1      27.259  15.826  -6.916  1.00  0.00     0.082 A 
ATOM     54  C   UNL     1      28.435  15.805  -7.624  1.00  0.00     0.024 A 
ATOM     55  C   UNL     1      27.311  15.702  -5.524  1.00  0.00     0.024 A 
ATOM     56  C   UNL     1      29.629  15.693  -6.902  1.00  0.00     0.027 A 
ATOM     57  C   UNL     1      28.513  15.582  -4.804  1.00  0.00     0.027 A 
ATOM     58  C   UNL     1      29.690  15.596  -5.515  1.00  0.00     0.041 A 
BRANCH  58  59
ATOM     59  N   UNL     1      30.923  15.444  -4.998  1.00  0.00    -0.322 N 
ATOM     60  C   UNL     1      31.236  15.245  -3.720  1.00  0.00     0.255 C 
ATOM     61  O   UNL     1      30.421  15.201  -2.823  1.00  0.00    -0.269 OA
ATOM     62  H   UNL     1      31.709  15.486  -5.663  1.00  0.00     0.170 HD
BRANCH  60  63
ATOM     63  C   UNL     1      32.662  15.009  -3.431  1.00  0.00     0.040 A 
ATOM     64  C   UNL     1      33.108  14.635  -2.148  1.00  0.00     0.014 A 
ATOM     65  C   UNL     1      33.563  15.258  -4.418  1.00  0.00     0.014 A 
ATOM     66  C   UNL     1      34.450  14.488  -1.859  1.00  0.00     0.014 A 
ATOM     67  C   UNL     1      34.913  15.103  -4.158  1.00  0.00     0.014 A 
ATOM     68  C   UNL     1      35.352  14.724  -2.879  1.00  0.00     0.039 A 
BRANCH  68  69
ATOM     69  C   UNL     1      36.828  14.586  -2.644  1.00  0.00     0.248 C 
ATOM     70  O   UNL     1      37.223  14.418  -1.526  1.00  0.00    -0.270 OA
ATOM     71  N   UNL     1      37.681  14.612  -3.663  1.00  0.00    -0.366 N 
ATOM     72  H   UNL     1      38.692  14.517  -3.491  1.00  0.00     0.159 HD
ATOM     73  H   UNL     1      37.332  14.727  -4.625  1.00  0.00     0.159 HD
ENDBRANCH  68  69
ENDBRANCH  60  63
ENDBRANCH  58  59
ENDBRANCH  50  53
ENDBRANCH  48  50
ENDBRANCH  43  48
ENDBRANCH  42  43
ENDBRANCH  41  42
ENDBRANCH  39  41
ENDBRANCH   3  39
BRANCH   5  74
ATOM     74  N   UNL     1      26.828  24.846 -11.874  1.00  0.00    -0.326 NA
ATOM     75  H   UNL     1      26.621  25.818 -11.603  1.00  0.00     0.119 HD
ATOM     76  H   UNL     1      27.585  24.839 -12.572  1.00  0.00     0.119 HD
ENDBRANCH   5  74
TORSDOF 30
ENDMDL
MODEL 2
REMARK VINA RESULT:    -9.421      1.832      4.492
REMARK INTER + INTRA:         -29.769
REMARK INTER:                 -25.539
REMARK INTRA:                  -4.230
REMARK UNBOUND:                -4.652
REMARK SMILES CC(C)C[C@H](NC(=O)[C@@H]1C[C@H](N)CN1C(=O)CC[C@@H](NS(=O)(=O)c1ccc(NC(=O)c2ccc(C(N)=O)cc2)cc1)C(=O)O)C(=O)N(C)[C@@H](CCC(=O)O)C(=O)NCCCCC(N)=O
REMARK SMILES IDX 9 1 10 2 14 3 13 4 11 5 7 6 6 7 8 8 5 10 45 11 46 12 47 13
REMARK SMILES IDX 48 14 49 15 50 16 51 17 52 18 53 19 54 20 55 22 56 23 57 24
REMARK SMILES IDX 58 26 59 27 60 28 61 29 62 30 63 31 64 32 4 35 2 36 1 37
REMARK SMILES IDX 3 38 15 39 16 40 17 41 18 42 19 43 42 44 43 45 44 46 20 48
REMARK SMILES IDX 21 50 22 51 23 52 24 53 41 54 25 55 40 56 26 57 27 58 28 59
REMARK SMILES IDX 29 60 30 61 31 63 39 64 32 65 38 66 33 67 34 68 35 69 37 70
REMARK SMILES IDX 36 71 12 74
REMARK H PARENT 6 9 54 21 57 25 63 33 63 34 44 47 20 49 28 62 36 72 36 73
REMARK H PARENT 12 75 12 76
ROOT
ATOM      1  C   UNL     1      25.320  23.075  -9.945  1.00  0.00     0.176 C 
ATOM      2  C   UNL     1      26.443  24.075  -9.684  1.00  0.00     0.055 C 
ATOM      3  N   UNL     1      25.912  22.019 -10.781  1.00  0.00    -0.329 N 
ATOM      4  C   UNL     1      27.275  22.344 -11.130  1.00  0.00     0.139 C 
ATOM      5  C   UNL     1      27.419  23.807 -10.788  1.00  0.00     0.072 C 
ENDROOT
BRANCH   1   6
ATOM      6  C   UNL     1      24.169  23.811 -10.647  1.00  0.00     0.243 C 
ATOM      7  N   UNL     1      24.251  25.145 -10.650  1.00  0.00    -0.342 N 
ATOM      8  O   UNL     1      23.248  23.171 -11.169  1.00  0.00    -0.273 OA
ATOM      9  H   UNL     1      25.062  25.606 -10.215  1.00  0.00     0.164 HD
BRANCH   7  10
ATOM     10  C   UNL     1      23.203  25.954 -11.263  1.00  0.00     0.171 C 
BRANCH  10  11
ATOM     11  C   UNL     1      23.594  27.251 -11.931  1.00  0.00     0.245 C 
ATOM     12  O   UNL     1      24.091  28.097 -11.204  1.00  0.00    -0.272 OA
BRANCH  11  13
ATOM     13  N   UNL     1      23.300  27.389 -13.271  1.00  0.00    -0.332 N 
ATOM     14  C   UNL     1      22.140  28.043 -13.914  1.00  0.00     0.147 C 
BRANCH  13  15
ATOM     15  C   UNL     1      24.178  26.774 -14.258  1.00  0.00     0.174 C 
BRANCH  15  16
ATOM     16  C   UNL     1      25.609  27.242 -13.939  1.00  0.00     0.047 C 
BRANCH  16  17
ATOM     17  C   UNL     1      25.796  28.600 -14.580  1.00  0.00     0.125 C 
BRANCH  17  18
ATOM     18  C   UNL     1      26.587  28.479 -15.860  1.00  0.00     0.303 C 
ATOM     19  O   UNL     1      26.078  28.928 -16.922  1.00  0.00    -0.252 OA
BRANCH  18  20
ATOM     20  O   UNL     1      27.720  27.931 -15.782  1.00  0.00    -0.481 OA
ATOM     21  H   UNL     1      28.100  27.464 -16.568  1.00  0.00     0.296 HD
ENDBRANCH  18  20
ENDBRANCH  17  18
ENDBRANCH  16  17
ENDBRANCH  15  16
BRANCH  15  22
ATOM     22  C   UNL     1      24.098  25.274 -14.241  1.00  0.00     0.242 C 
ATOM     23  O   UNL     1      24.992  24.539 -13.827  1.00  0.00    -0.273 OA
ATOM     24  N   UNL     1      22.970  24.839 -14.736  1.00  0.00    -0.354 N 
ATOM     25  H   UNL     1      22.279  25.540 -15.038  1.00  0.00     0.163 HD
BRANCH  24  26
ATOM     26  C   UNL     1      22.625  23.463 -14.888  1.00  0.00     0.116 C 
BRANCH  26  27
ATOM     27  C   UNL     1      21.157  23.407 -15.316  1.00  0.00     0.022 C 
BRANCH  27  28
ATOM     28  C   UNL     1      20.189  22.615 -14.387  1.00  0.00     0.012 C 
BRANCH  28  29
ATOM     29  C   UNL     1      20.954  21.722 -13.416  1.00  0.00     0.100 C 
BRANCH  29  30
ATOM     30  C   UNL     1      20.082  21.373 -12.201  1.00  0.00     0.217 C 
ATOM     31  N   UNL     1      20.636  21.486 -10.987  1.00  0.00    -0.370 N 
ATOM     32  O   UNL     1      18.927  20.998 -12.352  1.00  0.00    -0.275 OA
ATOM     33  H   UNL     1      20.085  21.261 -10.146  1.00  0.00     0.159 HD
ATOM     34  H   UNL     1      21.614  21.798 -10.893  1.00  0.00     0.159 HD
ENDBRANCH  29  30
ENDBRANCH  28  29
ENDBRANCH  27  28
ENDBRANCH  26  27
ENDBRANCH  24  26
ENDBRANCH  15  22
ENDBRANCH  13  15
ENDBRANCH  11  13
ENDBRANCH  10  11
BRANCH  10  35
ATOM     35  C   UNL     1      22.196  26.284 -10.159  1.00  0.00     0.038 C 
BRANCH  35  36
ATOM     36  C   UNL     1      20.826  25.688 -10.462  1.00  0.00    -0.015 C 
ATOM     37  C   UNL     1      20.776  25.167 -11.890  1.00  0.00     0.007 C 
ATOM     38  C   UNL     1      20.481  24.610  -9.437  1.00  0.00     0.007 C 
ENDBRANCH  35  36
ENDBRANCH  10  35
ENDBRANCH   7  10
ENDBRANCH   1   6
BRANCH   3  39
ATOM     39  C   UNL     1      25.219  20.974 -11.185  1.00  0.00     0.223 C 
ATOM     40  O   UNL     1      25.149  20.716 -12.357  1.00  0.00    -0.275 OA
BRANCH  39  41
ATOM     41  C   UNL     1      24.508  20.069 -10.191  1.00  0.00     0.102 C 
BRANCH  41  42
ATOM     42  C   UNL     1      25.136  18.697 -10.175  1.00  0.00     0.042 C 
BRANCH  42  43
ATOM     43  C   UNL     1      25.496  18.170  -8.814  1.00  0.00     0.180 C 
BRANCH  43  44
ATOM     44  C   UNL     1      26.284  19.180  -8.027  1.00  0.00     0.321 C 
ATOM     45  O   UNL     1      27.298  19.763  -8.531  1.00  0.00    -0.251 OA
BRANCH  44  46
ATOM     46  O   UNL     1      25.853  19.384  -6.861  1.00  0.00    -0.480 OA
ATOM     47  H   UNL     1      25.508  18.629  -6.321  1.00  0.00     0.296 HD
ENDBRANCH  44  46
ENDBRANCH  43  44
BRANCH  43  48
ATOM     48  N   UNL     1      26.160  16.908  -9.055  1.00  0.00    -0.197 NA
ATOM     49  H   UNL     1      25.731  16.459  -9.877  1.00  0.00     0.142 HD
BRANCH  48  50
ATOM     50  S   UNL     1      26.040  15.902  -7.786  1.00  0.00     0.241 S 
ATOM     51  O   UNL     1      25.672  14.609  -8.377  1.00  0.00    -0.207 OA
ATOM     52  O   UNL     1      25.062  16.373  -6.825  1.00  0.00    -0.207 OA
BRANCH  50  53
ATOM     53  C   UNL     1      27.399  15.798  -6.969  1.00  0.00     0.082 A 
ATOM     54  C   UNL     1      28.606  15.759  -7.622  1.00  0.00     0.024 A 
ATOM     55  C   UNL     1      27.387  15.695  -5.574  1.00  0.00     0.024 A 
ATOM     56  C   UNL     1      29.765  15.651  -6.844  1.00  0.00     0.027 A 
ATOM     57  C   UNL     1      28.553  15.579  -4.798  1.00  0.00     0.027 A 
ATOM     58  C   UNL     1      29.762  15.575  -5.454  1.00  0.00     0.041 A 
BRANCH  58  59
ATOM     59  N   UNL     1      30.969  15.423  -4.879  1.00  0.00    -0.322 N 
ATOM     60  C   UNL     1      31.220  15.227  -3.587  1.00  0.00     0.255 C 
ATOM     61  O   UNL     1      30.364  15.185  -2.729  1.00  0.00    -0.269 OA
ATOM     62  H   UNL     1      31.785  15.463  -5.506  1.00  0.00     0.170 HD
BRANCH  60  63
ATOM     63  C   UNL     1      32.631  14.990  -3.231  1.00  0.00     0.040 A 
ATOM     64  C   UNL     1      33.019  14.652  -1.919  1.00  0.00     0.014 A 
ATOM     65  C   UNL     1      33.576  15.205  -4.185  1.00  0.00     0.014 A 
ATOM     66  C   UNL     1      34.346  14.504  -1.568  1.00  0.00     0.014 A 
ATOM     67  C   UNL     1      34.912  15.049  -3.863  1.00  0.00     0.014 A 
ATOM     68  C   UNL     1      35.292  14.704  -2.555  1.00  0.00     0.039 A 
BRANCH  68  69
ATOM     69  C   UNL     1      36.756  14.565  -2.253  1.00  0.00     0.248 C 
ATOM     70  O   UNL     1      37.104  13.765  -1.433  1.00  0.00    -0.270 OA
ATOM     71  N   UNL     1      37.656  15.288  -2.912  1.00  0.00    -0.366 N 
ATOM     72  H   UNL     1      38.657  15.185  -2.697  1.00  0.00     0.159 HD
ATOM     73  H   UNL     1      37.351  15.953  -3.637  1.00  0.00     0.159 HD
ENDBRANCH  68  69
ENDBRANCH  60  63
ENDBRANCH  58  59
ENDBRANCH  50  53
ENDBRANCH  48  50
ENDBRANCH  43  48
ENDBRANCH  42  43
ENDBRANCH  41  42
ENDBRANCH  39  41
ENDBRANCH   3  39
BRANCH   5  74
ATOM     74  N   UNL     1      27.114  24.612 -11.972  1.00  0.00    -0.326 NA
ATOM     75  H   UNL     1      26.832  23.993 -12.745  1.00  0.00     0.119 HD
ATOM     76  H   UNL     1      26.347  25.264 -11.756  1.00  0.00     0.119 HD
ENDBRANCH   5  74
TORSDOF 30
ENDMDL
MODEL 3
REMARK VINA RESULT:    -9.269      2.349      5.797
REMARK INTER + INTRA:         -29.365
REMARK INTER:                 -25.880
REMARK INTRA:                  -3.485
REMARK UNBOUND:                -4.652
REMARK SMILES CC(C)C[C@H](NC(=O)[C@@H]1C[C@H](N)CN1C(=O)CC[C@@H](NS(=O)(=O)c1ccc(NC(=O)c2ccc(C(N)=O)cc2)cc1)C(=O)O)C(=O)N(C)[C@@H](CCC(=O)O)C(=O)NCCCCC(N)=O
REMARK SMILES IDX 9 1 10 2 14 3 13 4 11 5 7 6 6 7 8 8 5 10 45 11 46 12 47 13
REMARK SMILES IDX 48 14 49 15 50 16 51 17 52 18 53 19 54 20 55 22 56 23 57 24
REMARK SMILES IDX 58 26 59 27 60 28 61 29 62 30 63 31 64 32 4 35 2 36 1 37
REMARK SMILES IDX 3 38 15 39 16 40 17 41 18 42 19 43 42 44 43 45 44 46 20 48
REMARK SMILES IDX 21 50 22 51 23 52 24 53 41 54 25 55 40 56 26 57 27 58 28 59
REMARK SMILES IDX 29 60 30 61 31 63 39 64 32 65 38 66 33 67 34 68 35 69 37 70
REMARK SMILES IDX 36 71 12 74
REMARK H PARENT 6 9 54 21 57 25 63 33 63 34 44 47 20 49 28 62 36 72 36 73
REMARK H PARENT 12 75 12 76
ROOT
ATOM      1  C   UNL     1      25.151  23.166 -10.238  1.00  0.00     0.176 C 
ATOM      2  C   UNL     1      25.991  24.415  -9.980  1.00  0.00     0.055 C 
ATOM      3  N   UNL     1      26.083  22.163 -10.774  1.00  0.00    -0.329 N 
ATOM      4  C   UNL     1      27.400  22.728 -10.954  1.00  0.00     0.139 C 
ATOM      5  C   UNL     1      27.192  24.220 -10.853  1.00  0.00     0.072 C 
ENDROOT
BRANCH   1   6
ATOM      6  C   UNL     1      24.036  23.529 -11.230  1.00  0.00     0.243 C 
ATOM      7  N   UNL     1      22.788  23.421 -10.764  1.00  0.00    -0.342 N 
ATOM      8  O   UNL     1      24.319  23.901 -12.375  1.00  0.00    -0.273 OA
ATOM      9  H   UNL     1      22.632  23.127  -9.789  1.00  0.00     0.164 HD
BRANCH   7  10
ATOM     10  C   UNL     1      21.644  23.713 -11.621  1.00  0.00     0.171 C 
BRANCH  10  11
ATOM     11  C   UNL     1      21.125  25.131 -11.668  1.00  0.00     0.245 C 
ATOM     12  O   UNL     1      20.343  25.442 -10.784  1.00  0.00    -0.272 OA
BRANCH  11  13
ATOM     13  N   UNL     1      21.522  25.918 -12.728  1.00  0.00    -0.332 N 
ATOM     14  C   UNL     1      21.745  25.544 -14.142  1.00  0.00     0.147 C 
BRANCH  13  15
ATOM     15  C   UNL     1      21.852  27.317 -12.490  1.00  0.00     0.174 C 
BRANCH  15  16
ATOM     16  C   UNL     1      23.318  27.359 -12.026  1.00  0.00     0.047 C 
BRANCH  16  17
ATOM     17  C   UNL     1      23.330  27.879 -10.605  1.00  0.00     0.125 C 
BRANCH  17  18
ATOM     18  C   UNL     1      23.455  29.384 -10.591  1.00  0.00     0.303 C 
ATOM     19  O   UNL     1      24.611  29.887 -10.611  1.00  0.00    -0.252 OA
BRANCH  18  20
ATOM     20  O   UNL     1      22.383  30.047 -10.563  1.00  0.00    -0.481 OA
ATOM     21  H   UNL     1      22.227  30.765 -11.226  1.00  0.00     0.296 HD
ENDBRANCH  18  20
ENDBRANCH  17  18
ENDBRANCH  16  17
ENDBRANCH  15  16
BRANCH  15  22
ATOM     22  C   UNL     1      21.662  28.167 -13.715  1.00  0.00     0.242 C 
ATOM     23  O   UNL     1      20.570  28.421 -14.217  1.00  0.00    -0.273 OA
ATOM     24  N   UNL     1      22.801  28.591 -14.196  1.00  0.00    -0.354 N 
ATOM     25  H   UNL     1      23.659  28.335 -13.688  1.00  0.00     0.163 HD
BRANCH  24  26
ATOM     26  C   UNL     1      22.942  29.382 -15.375  1.00  0.00     0.116 C 
BRANCH  26  27
ATOM     27  C   UNL     1      23.835  30.573 -15.019  1.00  0.00     0.022 C 
BRANCH  27  28
ATOM     28  C   UNL     1      25.348  30.436 -15.360  1.00  0.00     0.012 C 
BRANCH  28  29
ATOM     29  C   UNL     1      26.079  29.586 -14.326  1.00  0.00     0.100 C 
BRANCH  29  30
ATOM     30  C   UNL     1      26.468  28.226 -14.922  1.00  0.00     0.217 C 
ATOM     31  N   UNL     1      26.716  28.173 -16.238  1.00  0.00    -0.370 N 
ATOM     32  O   UNL     1      26.538  27.231 -14.212  1.00  0.00    -0.275 OA
ATOM     33  H   UNL     1      26.980  27.280 -16.678  1.00  0.00     0.159 HD
ATOM     34  H   UNL     1      26.642  29.026 -16.811  1.00  0.00     0.159 HD
ENDBRANCH  29  30
ENDBRANCH  28  29
ENDBRANCH  27  28
ENDBRANCH  26  27
ENDBRANCH  24  26
ENDBRANCH  15  22
ENDBRANCH  13  15
ENDBRANCH  11  13
ENDBRANCH  10  11
BRANCH  10  35
ATOM     35  C   UNL     1      20.499  22.813 -11.153  1.00  0.00     0.038 C 
BRANCH  35  36
ATOM     36  C   UNL     1      20.271  21.657 -12.121  1.00  0.00    -0.015 C 
ATOM     37  C   UNL     1      21.526  20.809 -12.243  1.00  0.00     0.007 C 
ATOM     38  C   UNL     1      19.056  20.840 -11.689  1.00  0.00     0.007 C 
ENDBRANCH  35  36
ENDBRANCH  10  35
ENDBRANCH   7  10
ENDBRANCH   1   6
BRANCH   3  39
ATOM     39  C   UNL     1      25.694  20.945 -11.096  1.00  0.00     0.223 C 
ATOM     40  O   UNL     1      26.083  20.440 -12.114  1.00  0.00    -0.275 OA
BRANCH  39  41
ATOM     41  C   UNL     1      24.763  20.152 -10.192  1.00  0.00     0.102 C 
BRANCH  41  42
ATOM     42  C   UNL     1      25.172  18.701 -10.147  1.00  0.00     0.042 C 
BRANCH  42  43
ATOM     43  C   UNL     1      25.522  18.172  -8.785  1.00  0.00     0.180 C 
BRANCH  43  44
ATOM     44  C   UNL     1      26.300  19.183  -7.989  1.00  0.00     0.321 C 
ATOM     45  O   UNL     1      27.382  19.684  -8.438  1.00  0.00    -0.251 OA
BRANCH  44  46
ATOM     46  O   UNL     1      25.790  19.474  -6.874  1.00  0.00    -0.480 OA
ATOM     47  H   UNL     1      25.168  18.843  -6.434  1.00  0.00     0.296 HD
ENDBRANCH  44  46
ENDBRANCH  43  44
BRANCH  43  48
ATOM     48  N   UNL     1      26.192  16.913  -9.023  1.00  0.00    -0.197 NA
ATOM     49  H   UNL     1      25.767  16.461  -9.845  1.00  0.00     0.142 HD
BRANCH  48  50
ATOM     50  S   UNL     1      26.072  15.907  -7.753  1.00  0.00     0.241 S 
ATOM     51  O   UNL     1      25.703  14.614  -8.342  1.00  0.00    -0.207 OA
ATOM     52  O   UNL     1      25.096  16.380  -6.791  1.00  0.00    -0.207 OA
BRANCH  50  53
ATOM     53  C   UNL     1      27.433  15.802  -6.937  1.00  0.00     0.082 A 
ATOM     54  C   UNL     1      28.638  15.753  -7.592  1.00  0.00     0.024 A 
ATOM     55  C   UNL     1      27.422  15.709  -5.541  1.00  0.00     0.024 A 
ATOM     56  C   UNL     1      29.798  15.644  -6.815  1.00  0.00     0.027 A 
ATOM     57  C   UNL     1      28.589  15.592  -4.767  1.00  0.00     0.027 A 
ATOM     58  C   UNL     1      29.797  15.578  -5.425  1.00  0.00     0.041 A 
BRANCH  58  59
ATOM     59  N   UNL     1      31.004  15.424  -4.851  1.00  0.00    -0.322 N 
ATOM     60  C   UNL     1      31.256  15.219  -3.561  1.00  0.00     0.255 C 
ATOM     61  O   UNL     1      30.399  15.169  -2.703  1.00  0.00    -0.269 OA
ATOM     62  H   UNL     1      31.820  15.470  -5.477  1.00  0.00     0.170 HD
BRANCH  60  63
ATOM     63  C   UNL     1      32.667  14.982  -3.206  1.00  0.00     0.040 A 
ATOM     64  C   UNL     1      33.068  14.738  -1.877  1.00  0.00     0.014 A 
ATOM     65  C   UNL     1      33.601  15.104  -4.186  1.00  0.00     0.014 A 
ATOM     66  C   UNL     1      34.397  14.592  -1.534  1.00  0.00     0.014 A 
ATOM     67  C   UNL     1      34.939  14.947  -3.870  1.00  0.00     0.014 A 
ATOM     68  C   UNL     1      35.332  14.697  -2.545  1.00  0.00     0.039 A 
BRANCH  68  69
ATOM     69  C   UNL     1      36.797  14.552  -2.253  1.00  0.00     0.248 C 
ATOM     70  O   UNL     1      37.147  13.763  -1.422  1.00  0.00    -0.270 OA
ATOM     71  N   UNL     1      37.697  15.258  -2.931  1.00  0.00    -0.366 N 
ATOM     72  H   UNL     1      38.699  15.151  -2.723  1.00  0.00     0.159 HD
ATOM     73  H   UNL     1      37.391  15.912  -3.665  1.00  0.00     0.159 HD
ENDBRANCH  68  69
ENDBRANCH  60  63
ENDBRANCH  58  59
ENDBRANCH  50  53
ENDBRANCH  48  50
ENDBRANCH  43  48
ENDBRANCH  42  43
ENDBRANCH  41  42
ENDBRANCH  39  41
ENDBRANCH   3  39
BRANCH   5  74
ATOM     74  N   UNL     1      26.970  24.769 -12.191  1.00  0.00    -0.326 NA
ATOM     75  H   UNL     1      26.373  24.127 -12.731  1.00  0.00     0.119 HD
ATOM     76  H   UNL     1      26.508  25.686 -12.114  1.00  0.00     0.119 HD
ENDBRANCH   5  74
TORSDOF 30
ENDMDL
MODEL 4
REMARK VINA RESULT:    -9.248      1.963      5.605
REMARK INTER + INTRA:         -29.307
REMARK INTER:                 -24.143
REMARK INTRA:                  -5.165
REMARK UNBOUND:                -4.652
REMARK SMILES CC(C)C[C@H](NC(=O)[C@@H]1C[C@H](N)CN1C(=O)CC[C@@H](NS(=O)(=O)c1ccc(NC(=O)c2ccc(C(N)=O)cc2)cc1)C(=O)O)C(=O)N(C)[C@@H](CCC(=O)O)C(=O)NCCCCC(N)=O
REMARK SMILES IDX 9 1 10 2 14 3 13 4 11 5 7 6 6 7 8 8 5 10 45 11 46 12 47 13
REMARK SMILES IDX 48 14 49 15 50 16 51 17 52 18 53 19 54 20 55 22 56 23 57 24
REMARK SMILES IDX 58 26 59 27 60 28 61 29 62 30 63 31 64 32 4 35 2 36 1 37
REMARK SMILES IDX 3 38 15 39 16 40 17 41 18 42 19 43 42 44 43 45 44 46 20 48
REMARK SMILES IDX 21 50 22 51 23 52 24 53 41 54 25 55 40 56 26 57 27 58 28 59
REMARK SMILES IDX 29 60 30 61 31 63 39 64 32 65 38 66 33 67 34 68 35 69 37 70
REMARK SMILES IDX 36 71 12 74
REMARK H PARENT 6 9 54 21 57 25 63 33 63 34 44 47 20 49 28 62 36 72 36 73
REMARK H PARENT 12 75 12 76
ROOT
ATOM      1  C   UNL     1      25.704  19.958 -12.588  1.00  0.00     0.176 C 
ATOM      2  C   UNL     1      26.916  20.296 -13.453  1.00  0.00     0.055 C 
ATOM      3  N   UNL     1      25.432  18.532 -12.821  1.00  0.00    -0.329 N 
ATOM      4  C   UNL     1      26.317  17.997 -13.829  1.00  0.00     0.139 C 
ATOM      5  C   UNL     1      26.924  19.213 -14.487  1.00  0.00     0.072 C 
ENDROOT
BRANCH   1   6
ATOM      6  C   UNL     1      24.538  20.862 -13.016  1.00  0.00     0.243 C 
ATOM      7  N   UNL     1      24.075  21.693 -12.078  1.00  0.00    -0.342 N 
ATOM      8  O   UNL     1      24.091  20.798 -14.167  1.00  0.00    -0.273 OA
ATOM      9  H   UNL     1      24.515  21.707 -11.147  1.00  0.00     0.164 HD
BRANCH   7  10
ATOM     10  C   UNL     1      22.952  22.582 -12.358  1.00  0.00     0.171 C 
BRANCH  10  11
ATOM     11  C   UNL     1      23.241  23.943 -12.947  1.00  0.00     0.245 C 
ATOM     12  O   UNL     1      22.445  24.343 -13.782  1.00  0.00    -0.272 OA
BRANCH  11  13
ATOM     13  N   UNL     1      24.398  24.575 -12.546  1.00  0.00    -0.332 N 
ATOM     14  C   UNL     1      25.667  24.765 -13.282  1.00  0.00     0.147 C 
BRANCH  13  15
ATOM     15  C   UNL     1      24.486  25.104 -11.191  1.00  0.00     0.174 C 
BRANCH  15  16
ATOM     16  C   UNL     1      25.982  25.251 -10.863  1.00  0.00     0.047 C 
BRANCH  16  17
ATOM     17  C   UNL     1      26.230  24.548  -9.547  1.00  0.00     0.125 C 
BRANCH  17  18
ATOM     18  C   UNL     1      26.065  23.056  -9.702  1.00  0.00     0.303 C 
ATOM     19  O   UNL     1      25.153  22.484  -9.046  1.00  0.00    -0.252 OA
BRANCH  18  20
ATOM     20  O   UNL     1      26.858  22.472 -10.489  1.00  0.00    -0.481 OA
ATOM     21  H   UNL     1      27.504  23.000 -11.023  1.00  0.00     0.296 HD
ENDBRANCH  18  20
ENDBRANCH  17  18
ENDBRANCH  16  17
ENDBRANCH  15  16
BRANCH  15  22
ATOM     22  C   UNL     1      23.782  26.423 -11.043  1.00  0.00     0.242 C 
ATOM     23  O   UNL     1      22.705  26.571 -10.471  1.00  0.00    -0.273 OA
ATOM     24  N   UNL     1      24.443  27.396 -11.613  1.00  0.00    -0.354 N 
ATOM     25  H   UNL     1      25.347  27.167 -12.050  1.00  0.00     0.163 HD
BRANCH  24  26
ATOM     26  C   UNL     1      24.004  28.752 -11.673  1.00  0.00     0.116 C 
BRANCH  26  27
ATOM     27  C   UNL     1      24.227  29.238 -13.107  1.00  0.00     0.022 C 
BRANCH  27  28
ATOM     28  C   UNL     1      23.701  28.316 -14.246  1.00  0.00     0.012 C 
BRANCH  28  29
ATOM     29  C   UNL     1      22.327  28.762 -14.736  1.00  0.00     0.100 C 
BRANCH  29  30
ATOM     30  C   UNL     1      21.284  27.661 -14.494  1.00  0.00     0.217 C 
ATOM     31  N   UNL     1      21.292  27.050 -13.301  1.00  0.00    -0.370 N 
ATOM     32  O   UNL     1      20.487  27.356 -15.371  1.00  0.00    -0.275 OA
ATOM     33  H   UNL     1      20.609  26.307 -13.100  1.00  0.00     0.159 HD
ATOM     34  H   UNL     1      21.980  27.325 -12.587  1.00  0.00     0.159 HD
ENDBRANCH  29  30
ENDBRANCH  28  29
ENDBRANCH  27  28
ENDBRANCH  26  27
ENDBRANCH  24  26
ENDBRANCH  15  22
ENDBRANCH  13  15
ENDBRANCH  11  13
ENDBRANCH  10  11
BRANCH  10  35
ATOM     35  C   UNL     1      22.216  22.796 -11.034  1.00  0.00     0.038 C 
BRANCH  35  36
ATOM     36  C   UNL     1      20.755  23.167 -11.265  1.00  0.00    -0.015 C 
ATOM     37  C   UNL     1      19.905  21.916 -11.413  1.00  0.00     0.007 C 
ATOM     38  C   UNL     1      20.259  24.078 -10.144  1.00  0.00     0.007 C 
ENDBRANCH  35  36
ENDBRANCH  10  35
ENDBRANCH   7  10
ENDBRANCH   1   6
BRANCH   3  39
ATOM     39  C   UNL     1      24.450  17.897 -12.213  1.00  0.00     0.223 C 
ATOM     40  O   UNL     1      23.395  17.751 -12.769  1.00  0.00    -0.275 OA
BRANCH  39  41
ATOM     41  C   UNL     1      24.628  17.328 -10.814  1.00  0.00     0.102 C 
BRANCH  41  42
ATOM     42  C   UNL     1      24.634  18.433  -9.786  1.00  0.00     0.042 C 
BRANCH  42  43
ATOM     43  C   UNL     1      25.620  18.264  -8.665  1.00  0.00     0.180 C 
BRANCH  43  44
ATOM     44  C   UNL     1      26.540  19.448  -8.563  1.00  0.00     0.321 C 
ATOM     45  O   UNL     1      27.327  19.757  -9.515  1.00  0.00    -0.251 OA
BRANCH  44  46
ATOM     46  O   UNL     1      26.454  20.083  -7.477  1.00  0.00    -0.480 OA
ATOM     47  H   UNL     1      26.353  21.068  -7.486  1.00  0.00     0.296 HD
ENDBRANCH  44  46
ENDBRANCH  43  44
BRANCH  43  48
ATOM     48  N   UNL     1      26.263  16.992  -8.910  1.00  0.00    -0.197 NA
ATOM     49  H   UNL     1      25.815  16.543  -9.721  1.00  0.00     0.142 HD
BRANCH  48  50
ATOM     50  S   UNL     1      26.152  15.995  -7.632  1.00  0.00     0.241 S 
ATOM     51  O   UNL     1      25.746  14.706  -8.207  1.00  0.00    -0.207 OA
ATOM     52  O   UNL     1      25.205  16.491  -6.652  1.00  0.00    -0.207 OA
BRANCH  50  53
ATOM     53  C   UNL     1      27.527  15.868  -6.845  1.00  0.00     0.082 A 
ATOM     54  C   UNL     1      28.722  15.878  -7.520  1.00  0.00     0.024 A 
ATOM     55  C   UNL     1      27.541  15.695  -5.456  1.00  0.00     0.024 A 
ATOM     56  C   UNL     1      29.896  15.746  -6.768  1.00  0.00     0.027 A 
ATOM     57  C   UNL     1      28.722  15.555  -4.708  1.00  0.00     0.027 A 
ATOM     58  C   UNL     1      29.919  15.600  -5.385  1.00  0.00     0.041 A 
BRANCH  58  59
ATOM     59  N   UNL     1      31.138  15.436  -4.839  1.00  0.00    -0.322 N 
ATOM     60  C   UNL     1      31.418  15.235  -3.554  1.00  0.00     0.255 C 
ATOM     61  O   UNL     1      30.582  15.200  -2.675  1.00  0.00    -0.269 OA
ATOM     62  H   UNL     1      31.939  15.469  -5.485  1.00  0.00     0.170 HD
BRANCH  60  63
ATOM     63  C   UNL     1      32.835  14.984  -3.232  1.00  0.00     0.040 A 
ATOM     64  C   UNL     1      33.252  14.653  -1.927  1.00  0.00     0.014 A 
ATOM     65  C   UNL     1      33.757  15.179  -4.211  1.00  0.00     0.014 A 
ATOM     66  C   UNL     1      34.586  14.492  -1.609  1.00  0.00     0.014 A 
ATOM     67  C   UNL     1      35.099  15.009  -3.922  1.00  0.00     0.014 A 
ATOM     68  C   UNL     1      35.509  14.672  -2.622  1.00  0.00     0.039 A 
BRANCH  68  69
ATOM     69  C   UNL     1      36.978  14.517  -2.356  1.00  0.00     0.248 C 
ATOM     70  O   UNL     1      37.330  13.980  -1.345  1.00  0.00    -0.270 OA
ATOM     71  N   UNL     1      37.875  14.933  -3.246  1.00  0.00    -0.366 N 
ATOM     72  H   UNL     1      38.880  14.822  -3.054  1.00  0.00     0.159 HD
ATOM     73  H   UNL     1      37.564  15.366  -4.126  1.00  0.00     0.159 HD
ENDBRANCH  68  69
ENDBRANCH  60  63
ENDBRANCH  58  59
ENDBRANCH  50  53
ENDBRANCH  48  50
ENDBRANCH  43  48
ENDBRANCH  42  43
ENDBRANCH  41  42
ENDBRANCH  39  41
ENDBRANCH   3  39
BRANCH   5  74
ATOM     74  N   UNL     1      26.118  19.585 -15.651  1.00  0.00    -0.326 NA
ATOM     75  H   UNL     1      25.891  20.589 -15.605  1.00  0.00     0.119 HD
ATOM     76  H   UNL     1      26.649  19.393 -16.512  1.00  0.00     0.119 HD
ENDBRANCH   5  74
TORSDOF 30
ENDMDL
MODEL 5
REMARK VINA RESULT:    -9.204      1.793      5.030
REMARK INTER + INTRA:         -29.191
REMARK INTER:                 -23.952
REMARK INTRA:                  -5.239
REMARK UNBOUND:                -4.652
REMARK SMILES CC(C)C[C@H](NC(=O)[C@@H]1C[C@H](N)CN1C(=O)CC[C@@H](NS(=O)(=O)c1ccc(NC(=O)c2ccc(C(N)=O)cc2)cc1)C(=O)O)C(=O)N(C)[C@@H](CCC(=O)O)C(=O)NCCCCC(N)=O
REMARK SMILES IDX 9 1 10 2 14 3 13 4 11 5 7 6 6 7 8 8 5 10 45 11 46 12 47 13
REMARK SMILES IDX 48 14 49 15 50 16 51 17 52 18 53 19 54 20 55 22 56 23 57 24
REMARK SMILES IDX 58 26 59 27 60 28 61 29 62 30 63 31 64 32 4 35 2 36 1 37
REMARK SMILES IDX 3 38 15 39 16 40 17 41 18 42 19 43 42 44 43 45 44 46 20 48
REMARK SMILES IDX 21 50 22 51 23 52 24 53 41 54 25 55 40 56 26 57 27 58 28 59
REMARK SMILES IDX 29 60 30 61 31 63 39 64 32 65 38 66 33 67 34 68 35 69 37 70
REMARK SMILES IDX 36 71 12 74
REMARK H PARENT 6 9 54 21 57 25 63 33 63 34 44 47 20 49 28 62 36 72 36 73
REMARK H PARENT 12 75 12 76
ROOT
ATOM      1  C   UNL     1      24.426  19.508 -14.390  1.00  0.00     0.176 C 
ATOM      2  C   UNL     1      23.712  18.880 -15.585  1.00  0.00     0.055 C 
ATOM      3  N   UNL     1      24.531  18.442 -13.383  1.00  0.00    -0.329 N 
ATOM      4  C   UNL     1      23.855  17.246 -13.827  1.00  0.00     0.139 C 
ATOM      5  C   UNL     1      23.011  17.696 -14.995  1.00  0.00     0.072 C 
ENDROOT
BRANCH   1   6
ATOM      6  C   UNL     1      23.595  20.704 -13.904  1.00  0.00     0.243 C 
ATOM      7  N   UNL     1      22.708  20.440 -12.940  1.00  0.00    -0.342 N 
ATOM      8  O   UNL     1      23.772  21.826 -14.395  1.00  0.00    -0.273 OA
ATOM      9  H   UNL     1      22.635  19.485 -12.563  1.00  0.00     0.164 HD
BRANCH   7  10
ATOM     10  C   UNL     1      21.843  21.491 -12.415  1.00  0.00     0.171 C 
BRANCH  10  11
ATOM     11  C   UNL     1      22.337  22.316 -11.250  1.00  0.00     0.245 C 
ATOM     12  O   UNL     1      23.116  21.757 -10.493  1.00  0.00    -0.272 OA
BRANCH  11  13
ATOM     13  N   UNL     1      21.823  23.587 -11.108  1.00  0.00    -0.332 N 
ATOM     14  C   UNL     1      20.876  24.108 -10.099  1.00  0.00     0.147 C 
BRANCH  13  15
ATOM     15  C   UNL     1      22.164  24.606 -12.092  1.00  0.00     0.174 C 
BRANCH  15  16
ATOM     16  C   UNL     1      21.212  25.791 -11.859  1.00  0.00     0.047 C 
BRANCH  16  17
ATOM     17  C   UNL     1      21.261  26.663 -13.094  1.00  0.00     0.125 C 
BRANCH  17  18
ATOM     18  C   UNL     1      21.396  28.118 -12.712  1.00  0.00     0.303 C 
ATOM     19  O   UNL     1      22.038  28.404 -11.666  1.00  0.00    -0.252 OA
BRANCH  18  20
ATOM     20  O   UNL     1      20.853  28.962 -13.476  1.00  0.00    -0.481 OA
ATOM     21  H   UNL     1      20.489  29.804 -13.104  1.00  0.00     0.296 HD
ENDBRANCH  18  20
ENDBRANCH  17  18
ENDBRANCH  16  17
ENDBRANCH  15  16
BRANCH  15  22
ATOM     22  C   UNL     1      23.595  25.050 -11.985  1.00  0.00     0.242 C 
ATOM     23  O   UNL     1      24.032  25.761 -11.083  1.00  0.00    -0.273 OA
ATOM     24  N   UNL     1      24.321  24.607 -12.978  1.00  0.00    -0.354 N 
ATOM     25  H   UNL     1      23.860  24.003 -13.673  1.00  0.00     0.163 HD
BRANCH  24  26
ATOM     26  C   UNL     1      25.704  24.899 -13.169  1.00  0.00     0.116 C 
BRANCH  26  27
ATOM     27  C   UNL     1      26.492  23.651 -12.763  1.00  0.00     0.022 C 
BRANCH  27  28
ATOM     28  C   UNL     1      27.189  23.690 -11.371  1.00  0.00     0.012 C 
BRANCH  28  29
ATOM     29  C   UNL     1      26.516  22.742 -10.383  1.00  0.00     0.100 C 
BRANCH  29  30
ATOM     30  C   UNL     1      25.889  23.528  -9.223  1.00  0.00     0.217 C 
ATOM     31  N   UNL     1      26.056  24.857  -9.212  1.00  0.00    -0.370 N 
ATOM     32  O   UNL     1      25.270  22.948  -8.341  1.00  0.00    -0.275 OA
ATOM     33  H   UNL     1      25.652  25.421  -8.451  1.00  0.00     0.159 HD
ATOM     34  H   UNL     1      26.588  25.316  -9.965  1.00  0.00     0.159 HD
ENDBRANCH  29  30
ENDBRANCH  28  29
ENDBRANCH  27  28
ENDBRANCH  26  27
ENDBRANCH  24  26
ENDBRANCH  15  22
ENDBRANCH  13  15
ENDBRANCH  11  13
ENDBRANCH  10  11
BRANCH  10  35
ATOM     35  C   UNL     1      20.538  20.817 -11.988  1.00  0.00     0.038 C 
BRANCH  35  36
ATOM     36  C   UNL     1      19.379  21.230 -12.888  1.00  0.00    -0.015 C 
ATOM     37  C   UNL     1      19.892  21.991 -14.100  1.00  0.00     0.007 C 
ATOM     38  C   UNL     1      18.551  20.008 -13.276  1.00  0.00     0.007 C 
ENDBRANCH  35  36
ENDBRANCH  10  35
ENDBRANCH   7  10
ENDBRANCH   1   6
BRANCH   3  39
ATOM     39  C   UNL     1      25.115  18.634 -12.217  1.00  0.00     0.223 C 
ATOM     40  O   UNL     1      25.857  19.567 -12.063  1.00  0.00    -0.275 OA
BRANCH  39  41
ATOM     41  C   UNL     1      24.860  17.698 -11.046  1.00  0.00     0.102 C 
BRANCH  41  42
ATOM     42  C   UNL     1      24.700  18.479  -9.765  1.00  0.00     0.042 C 
BRANCH  42  43
ATOM     43  C   UNL     1      25.710  18.176  -8.695  1.00  0.00     0.180 C 
BRANCH  43  44
ATOM     44  C   UNL     1      26.697  19.300  -8.540  1.00  0.00     0.321 C 
ATOM     45  O   UNL     1      26.717  20.019  -7.490  1.00  0.00    -0.251 OA
BRANCH  44  46
ATOM     46  O   UNL     1      27.474  19.450  -9.521  1.00  0.00    -0.480 OA
ATOM     47  H   UNL     1      28.450  19.334  -9.402  1.00  0.00     0.296 HD
ENDBRANCH  44  46
ENDBRANCH  43  44
BRANCH  43  48
ATOM     48  N   UNL     1      26.275  16.894  -9.054  1.00  0.00    -0.197 NA
ATOM     49  H   UNL     1      25.753  16.514  -9.856  1.00  0.00     0.142 HD
BRANCH  48  50
ATOM     50  S   UNL     1      26.201  15.829  -7.830  1.00  0.00     0.241 S 
ATOM     51  O   UNL     1      25.906  14.545  -8.477  1.00  0.00    -0.207 OA
ATOM     52  O   UNL     1      25.195  16.207  -6.857  1.00  0.00    -0.207 OA
BRANCH  50  53
ATOM     53  C   UNL     1      27.560  15.761  -7.007  1.00  0.00     0.082 A 
ATOM     54  C   UNL     1      28.771  15.818  -7.652  1.00  0.00     0.024 A 
ATOM     55  C   UNL     1      27.545  15.594  -5.618  1.00  0.00     0.024 A 
ATOM     56  C   UNL     1      29.929  15.737  -6.870  1.00  0.00     0.027 A 
ATOM     57  C   UNL     1      28.712  15.505  -4.840  1.00  0.00     0.027 A 
ATOM     58  C   UNL     1      29.923  15.597  -5.486  1.00  0.00     0.041 A 
BRANCH  58  59
ATOM     59  N   UNL     1      31.134  15.485  -4.909  1.00  0.00    -0.322 N 
ATOM     60  C   UNL     1      31.389  15.276  -3.619  1.00  0.00     0.255 C 
ATOM     61  O   UNL     1      30.532  15.185  -2.765  1.00  0.00    -0.269 OA
ATOM     62  H   UNL     1      31.949  15.569  -5.531  1.00  0.00     0.170 HD
BRANCH  60  63
ATOM     63  C   UNL     1      32.806  15.092  -3.261  1.00  0.00     0.040 A 
ATOM     64  C   UNL     1      33.835  15.207  -4.218  1.00  0.00     0.014 A 
ATOM     65  C   UNL     1      33.100  14.705  -1.991  1.00  0.00     0.014 A 
ATOM     66  C   UNL     1      35.156  14.959  -3.899  1.00  0.00     0.014 A 
ATOM     67  C   UNL     1      34.416  14.465  -1.643  1.00  0.00     0.014 A 
ATOM     68  C   UNL     1      35.439  14.588  -2.598  1.00  0.00     0.039 A 
BRANCH  68  69
ATOM     69  C   UNL     1      36.849  14.300  -2.173  1.00  0.00     0.248 C 
ATOM     70  O   UNL     1      37.037  13.543  -1.264  1.00  0.00    -0.270 OA
ATOM     71  N   UNL     1      37.876  14.845  -2.819  1.00  0.00    -0.366 N 
ATOM     72  H   UNL     1      38.839  14.641  -2.519  1.00  0.00     0.159 HD
ATOM     73  H   UNL     1      37.707  15.471  -3.619  1.00  0.00     0.159 HD
ENDBRANCH  68  69
ENDBRANCH  60  63
ENDBRANCH  58  59
ENDBRANCH  50  53
ENDBRANCH  48  50
ENDBRANCH  43  48
ENDBRANCH  42  43
ENDBRANCH  41  42
ENDBRANCH  39  41
ENDBRANCH   3  39
BRANCH   5  74
ATOM     74  N   UNL     1      21.676  18.056 -14.515  1.00  0.00    -0.326 NA
ATOM     75  H   UNL     1      21.511  19.060 -14.678  1.00  0.00     0.119 HD
ATOM     76  H   UNL     1      20.969  17.505 -15.023  1.00  0.00     0.119 HD
ENDBRANCH   5  74
TORSDOF 30
ENDMDL
MODEL 6
REMARK VINA RESULT:    -9.152      2.149      4.660
REMARK INTER + INTRA:         -29.053
REMARK INTER:                 -24.226
REMARK INTRA:                  -4.826
REMARK UNBOUND:                -4.652
REMARK SMILES CC(C)C[C@H](NC(=O)[C@@H]1C[C@H](N)CN1C(=O)CC[C@@H](NS(=O)(=O)c1ccc(NC(=O)c2ccc(C(N)=O)cc2)cc1)C(=O)O)C(=O)N(C)[C@@H](CCC(=O)O)C(=O)NCCCCC(N)=O
REMARK SMILES IDX 9 1 10 2 14 3 13 4 11 5 7 6 6 7 8 8 5 10 45 11 46 12 47 13
REMARK SMILES IDX 48 14 49 15 50 16 51 17 52 18 53 19 54 20 55 22 56 23 57 24
REMARK SMILES IDX 58 26 59 27 60 28 61 29 62 30 63 31 64 32 4 35 2 36 1 37
REMARK SMILES IDX 3 38 15 39 16 40 17 41 18 42 19 43 42 44 43 45 44 46 20 48
REMARK SMILES IDX 21 50 22 51 23 52 24 53 41 54 25 55 40 56 26 57 27 58 28 59
REMARK SMILES IDX 29 60 30 61 31 63 39 64 32 65 38 66 33 67 34 68 35 69 37 70
REMARK SMILES IDX 36 71 12 74
REMARK H PARENT 6 9 54 21 57 25 63 33 63 34 44 47 20 49 28 62 36 72 36 73
REMARK H PARENT 12 75 12 76
ROOT
ATOM      1  C   UNL     1      25.234  23.043 -10.156  1.00  0.00     0.176 C 
ATOM      2  C   UNL     1      26.200  24.163  -9.777  1.00  0.00     0.055 C 
ATOM      3  N   UNL     1      26.056  22.006 -10.796  1.00  0.00    -0.329 N 
ATOM      4  C   UNL     1      27.426  22.443 -10.926  1.00  0.00     0.139 C 
ATOM      5  C   UNL     1      27.378  23.930 -10.672  1.00  0.00     0.072 C 
ENDROOT
BRANCH   1   6
ATOM      6  C   UNL     1      24.168  23.621 -11.099  1.00  0.00     0.243 C 
ATOM      7  N   UNL     1      22.941  23.741 -10.583  1.00  0.00    -0.342 N 
ATOM      8  O   UNL     1      24.471  23.949 -12.252  1.00  0.00    -0.273 OA
ATOM      9  H   UNL     1      22.771  23.468  -9.604  1.00  0.00     0.164 HD
BRANCH   7  10
ATOM     10  C   UNL     1      21.840  24.253 -11.391  1.00  0.00     0.171 C 
BRANCH  10  11
ATOM     11  C   UNL     1      21.403  25.685 -11.187  1.00  0.00     0.245 C 
ATOM     12  O   UNL     1      20.261  25.842 -10.785  1.00  0.00    -0.272 OA
BRANCH  11  13
ATOM     13  N   UNL     1      22.297  26.676 -11.529  1.00  0.00    -0.332 N 
ATOM     14  C   UNL     1      23.441  27.213 -10.761  1.00  0.00     0.147 C 
BRANCH  13  15
ATOM     15  C   UNL     1      22.119  27.392 -12.786  1.00  0.00     0.174 C 
BRANCH  15  16
ATOM     16  C   UNL     1      22.896  28.714 -12.663  1.00  0.00     0.047 C 
BRANCH  16  17
ATOM     17  C   UNL     1      21.954  29.832 -13.054  1.00  0.00     0.125 C 
BRANCH  17  18
ATOM     18  C   UNL     1      20.927  30.064 -11.973  1.00  0.00     0.303 C 
ATOM     19  O   UNL     1      19.839  29.431 -12.037  1.00  0.00    -0.252 OA
BRANCH  18  20
ATOM     20  O   UNL     1      21.229  30.884 -11.064  1.00  0.00    -0.481 OA
ATOM     21  H   UNL     1      20.746  31.745 -10.993  1.00  0.00     0.296 HD
ENDBRANCH  18  20
ENDBRANCH  17  18
ENDBRANCH  16  17
ENDBRANCH  15  16
BRANCH  15  22
ATOM     22  C   UNL     1      22.605  26.603 -13.969  1.00  0.00     0.242 C 
ATOM     23  O   UNL     1      21.960  25.713 -14.518  1.00  0.00    -0.273 OA
ATOM     24  N   UNL     1      23.807  26.962 -14.335  1.00  0.00    -0.354 N 
ATOM     25  H   UNL     1      24.254  27.732 -13.817  1.00  0.00     0.163 HD
BRANCH  24  26
ATOM     26  C   UNL     1      24.546  26.365 -15.398  1.00  0.00     0.116 C 
BRANCH  26  27
ATOM     27  C   UNL     1      26.028  26.445 -15.024  1.00  0.00     0.022 C 
BRANCH  27  28
ATOM     28  C   UNL     1      26.977  25.419 -15.710  1.00  0.00     0.012 C 
BRANCH  28  29
ATOM     29  C   UNL     1      26.242  24.131 -16.066  1.00  0.00     0.100 C 
BRANCH  29  30
ATOM     30  C   UNL     1      26.410  23.088 -14.952  1.00  0.00     0.217 C 
ATOM     31  N   UNL     1      25.353  22.318 -14.659  1.00  0.00    -0.370 N 
ATOM     32  O   UNL     1      27.473  22.979 -14.356  1.00  0.00    -0.275 OA
ATOM     33  H   UNL     1      25.423  21.607 -13.918  1.00  0.00     0.159 HD
ATOM     34  H   UNL     1      24.469  22.439 -15.174  1.00  0.00     0.159 HD
ENDBRANCH  29  30
ENDBRANCH  28  29
ENDBRANCH  27  28
ENDBRANCH  26  27
ENDBRANCH  24  26
ENDBRANCH  15  22
ENDBRANCH  13  15
ENDBRANCH  11  13
ENDBRANCH  10  11
BRANCH  10  35
ATOM     35  C   UNL     1      20.633  23.354 -11.115  1.00  0.00     0.038 C 
BRANCH  35  36
ATOM     36  C   UNL     1      20.724  22.048 -11.896  1.00  0.00    -0.015 C 
ATOM     37  C   UNL     1      19.546  21.146 -11.563  1.00  0.00     0.007 C 
ATOM     38  C   UNL     1      20.832  22.335 -13.392  1.00  0.00     0.007 C 
ENDBRANCH  35  36
ENDBRANCH  10  35
ENDBRANCH   7  10
ENDBRANCH   1   6
BRANCH   3  39
ATOM     39  C   UNL     1      25.541  20.875 -11.237  1.00  0.00     0.223 C 
ATOM     40  O   UNL     1      25.772  20.507 -12.357  1.00  0.00    -0.275 OA
BRANCH  39  41
ATOM     41  C   UNL     1      24.662  20.011 -10.347  1.00  0.00     0.102 C 
BRANCH  41  42
ATOM     42  C   UNL     1      25.194  18.600 -10.281  1.00  0.00     0.042 C 
BRANCH  42  43
ATOM     43  C   UNL     1      25.522  18.099  -8.903  1.00  0.00     0.180 C 
BRANCH  43  44
ATOM     44  C   UNL     1      26.308  19.117  -8.125  1.00  0.00     0.321 C 
ATOM     45  O   UNL     1      27.393  19.604  -8.581  1.00  0.00    -0.251 OA
BRANCH  44  46
ATOM     46  O   UNL     1      25.801  19.430  -7.014  1.00  0.00    -0.480 OA
ATOM     47  H   UNL     1      24.912  19.076  -6.758  1.00  0.00     0.296 HD
ENDBRANCH  44  46
ENDBRANCH  43  44
BRANCH  43  48
ATOM     48  N   UNL     1      26.177  16.825  -9.105  1.00  0.00    -0.197 NA
ATOM     49  H   UNL     1      25.742  16.352  -9.910  1.00  0.00     0.142 HD
BRANCH  48  50
ATOM     50  S   UNL     1      26.052  15.862  -7.803  1.00  0.00     0.241 S 
ATOM     51  O   UNL     1      25.682  14.551  -8.351  1.00  0.00    -0.207 OA
ATOM     52  O   UNL     1      25.074  16.367  -6.860  1.00  0.00    -0.207 OA
BRANCH  50  53
ATOM     53  C   UNL     1      27.410  15.781  -6.981  1.00  0.00     0.082 A 
ATOM     54  C   UNL     1      28.619  15.759  -7.629  1.00  0.00     0.024 A 
ATOM     55  C   UNL     1      27.394  15.683  -5.585  1.00  0.00     0.024 A 
ATOM     56  C   UNL     1      29.777  15.671  -6.847  1.00  0.00     0.027 A 
ATOM     57  C   UNL     1      28.560  15.587  -4.805  1.00  0.00     0.027 A 
ATOM     58  C   UNL     1      29.770  15.599  -5.457  1.00  0.00     0.041 A 
BRANCH  58  59
ATOM     59  N   UNL     1      30.978  15.468  -4.878  1.00  0.00    -0.322 N 
ATOM     60  C   UNL     1      31.226  15.217  -3.594  1.00  0.00     0.255 C 
ATOM     61  O   UNL     1      30.364  15.097  -2.749  1.00  0.00    -0.269 OA
ATOM     62  H   UNL     1      31.797  15.573  -5.492  1.00  0.00     0.170 HD
BRANCH  60  63
ATOM     63  C   UNL     1      32.642  15.021  -3.235  1.00  0.00     0.040 A 
ATOM     64  C   UNL     1      33.034  14.672  -1.927  1.00  0.00     0.014 A 
ATOM     65  C   UNL     1      33.583  15.283  -4.180  1.00  0.00     0.014 A 
ATOM     66  C   UNL     1      34.364  14.561  -1.572  1.00  0.00     0.014 A 
ATOM     67  C   UNL     1      34.922  15.166  -3.854  1.00  0.00     0.014 A 
ATOM     68  C   UNL     1      35.308  14.810  -2.551  1.00  0.00     0.039 A 
BRANCH  68  69
ATOM     69  C   UNL     1      36.774  14.713  -2.244  1.00  0.00     0.248 C 
ATOM     70  O   UNL     1      37.477  15.656  -2.472  1.00  0.00    -0.270 OA
ATOM     71  N   UNL     1      37.279  13.615  -1.690  1.00  0.00    -0.366 N 
ATOM     72  H   UNL     1      38.286  13.559  -1.484  1.00  0.00     0.159 HD
ATOM     73  H   UNL     1      36.663  12.820  -1.469  1.00  0.00     0.159 HD
ENDBRANCH  68  69
ENDBRANCH  60  63
ENDBRANCH  58  59
ENDBRANCH  50  53
ENDBRANCH  48  50
ENDBRANCH  43  48
ENDBRANCH  42  43
ENDBRANCH  41  42
ENDBRANCH  39  41
ENDBRANCH   3  39
BRANCH   5  74
ATOM     74  N   UNL     1      27.223  24.633 -11.946  1.00  0.00    -0.326 NA
ATOM     75  H   UNL     1      26.583  25.432 -11.823  1.00  0.00     0.119 HD
ATOM     76  H   UNL     1      28.141  24.974 -12.265  1.00  0.00     0.119 HD
ENDBRANCH   5  74
TORSDOF 30
ENDMDL
MODEL 7
REMARK VINA RESULT:    -9.119      2.590      5.473
REMARK INTER + INTRA:         -28.966
REMARK INTER:                 -24.922
REMARK INTRA:                  -4.043
REMARK UNBOUND:                -4.652
REMARK SMILES CC(C)C[C@H](NC(=O)[C@@H]1C[C@H](N)CN1C(=O)CC[C@@H](NS(=O)(=O)c1ccc(NC(=O)c2ccc(C(N)=O)cc2)cc1)C(=O)O)C(=O)N(C)[C@@H](CCC(=O)O)C(=O)NCCCCC(N)=O
REMARK SMILES IDX 9 1 10 2 14 3 13 4 11 5 7 6 6 7 8 8 5 10 45 11 46 12 47 13
REMARK SMILES IDX 48 14 49 15 50 16 51 17 52 18 53 19 54 20 55 22 56 23 57 24
REMARK SMILES IDX 58 26 59 27 60 28 61 29 62 30 63 31 64 32 4 35 2 36 1 37
REMARK SMILES IDX 3 38 15 39 16 40 17 41 18 42 19 43 42 44 43 45 44 46 20 48
REMARK SMILES IDX 21 50 22 51 23 52 24 53 41 54 25 55 40 56 26 57 27 58 28 59
REMARK SMILES IDX 29 60 30 61 31 63 39 64 32 65 38 66 33 67 34 68 35 69 37 70
REMARK SMILES IDX 36 71 12 74
REMARK H PARENT 6 9 54 21 57 25 63 33 63 34 44 47 20 49 28 62 36 72 36 73
REMARK H PARENT 12 75 12 76
ROOT
ATOM      1  C   UNL     1      25.768  23.388 -10.425  1.00  0.00     0.176 C 
ATOM      2  C   UNL     1      27.206  23.872 -10.592  1.00  0.00     0.055 C 
ATOM      3  N   UNL     1      25.724  22.048 -11.030  1.00  0.00    -0.329 N 
ATOM      4  C   UNL     1      26.992  21.716 -11.637  1.00  0.00     0.139 C 
ATOM      5  C   UNL     1      27.735  23.029 -11.712  1.00  0.00     0.072 C 
ENDROOT
BRANCH   1   6
ATOM      6  C   UNL     1      24.837  24.387 -11.128  1.00  0.00     0.243 C 
ATOM      7  N   UNL     1      24.143  25.197 -10.324  1.00  0.00    -0.342 N 
ATOM      8  O   UNL     1      24.770  24.411 -12.363  1.00  0.00    -0.273 OA
ATOM      9  H   UNL     1      24.270  25.134  -9.304  1.00  0.00     0.164 HD
BRANCH   7  10
ATOM     10  C   UNL     1      23.206  26.170 -10.876  1.00  0.00     0.171 C 
BRANCH  10  11
ATOM     11  C   UNL     1      23.609  27.626 -10.895  1.00  0.00     0.245 C 
ATOM     12  O   UNL     1      24.375  27.979 -10.012  1.00  0.00    -0.272 OA
BRANCH  11  13
ATOM     13  N   UNL     1      23.034  28.431 -11.855  1.00  0.00    -0.332 N 
ATOM     14  C   UNL     1      22.017  29.494 -11.701  1.00  0.00     0.147 C 
BRANCH  13  15
ATOM     15  C   UNL     1      23.378  28.224 -13.256  1.00  0.00     0.174 C 
BRANCH  15  16
ATOM     16  C   UNL     1      22.212  28.784 -14.090  1.00  0.00     0.047 C 
BRANCH  16  17
ATOM     17  C   UNL     1      21.519  27.609 -14.746  1.00  0.00     0.125 C 
BRANCH  17  18
ATOM     18  C   UNL     1      22.452  26.909 -15.703  1.00  0.00     0.303 C 
ATOM     19  O   UNL     1      23.051  27.602 -16.568  1.00  0.00    -0.252 OA
BRANCH  18  20
ATOM     20  O   UNL     1      22.574  25.661 -15.572  1.00  0.00    -0.481 OA
ATOM     21  H   UNL     1      21.839  25.130 -15.173  1.00  0.00     0.296 HD
ENDBRANCH  18  20
ENDBRANCH  17  18
ENDBRANCH  16  17
ENDBRANCH  15  16
BRANCH  15  22
ATOM     22  C   UNL     1      24.667  28.896 -13.635  1.00  0.00     0.242 C 
ATOM     23  O   UNL     1      24.994  30.022 -13.268  1.00  0.00    -0.273 OA
ATOM     24  N   UNL     1      25.396  28.146 -14.420  1.00  0.00    -0.354 N 
ATOM     25  H   UNL     1      25.038  27.210 -14.653  1.00  0.00     0.163 HD
BRANCH  24  26
ATOM     26  C   UNL     1      26.652  28.531 -14.976  1.00  0.00     0.116 C 
BRANCH  26  27
ATOM     27  C   UNL     1      26.432  28.769 -16.472  1.00  0.00     0.022 C 
BRANCH  27  28
ATOM     28  C   UNL     1      27.198  27.828 -17.448  1.00  0.00     0.012 C 
BRANCH  28  29
ATOM     29  C   UNL     1      26.994  26.361 -17.083  1.00  0.00     0.100 C 
BRANCH  29  30
ATOM     30  C   UNL     1      28.309  25.739 -16.590  1.00  0.00     0.217 C 
ATOM     31  N   UNL     1      28.249  24.521 -16.034  1.00  0.00    -0.370 N 
ATOM     32  O   UNL     1      29.365  26.348 -16.698  1.00  0.00    -0.275 OA
ATOM     33  H   UNL     1      29.108  24.069 -15.690  1.00  0.00     0.159 HD
ATOM     34  H   UNL     1      27.343  24.037 -15.951  1.00  0.00     0.159 HD
ENDBRANCH  29  30
ENDBRANCH  28  29
ENDBRANCH  27  28
ENDBRANCH  26  27
ENDBRANCH  24  26
ENDBRANCH  15  22
ENDBRANCH  13  15
ENDBRANCH  11  13
ENDBRANCH  10  11
BRANCH  10  35
ATOM     35  C   UNL     1      21.917  26.055 -10.059  1.00  0.00     0.038 C 
BRANCH  35  36
ATOM     36  C   UNL     1      20.807  25.392 -10.866  1.00  0.00    -0.015 C 
ATOM     37  C   UNL     1      21.307  25.017 -12.252  1.00  0.00     0.007 C 
ATOM     38  C   UNL     1      20.247  24.192 -10.105  1.00  0.00     0.007 C 
ENDBRANCH  35  36
ENDBRANCH  10  35
ENDBRANCH   7  10
ENDBRANCH   1   6
BRANCH   3  39
ATOM     39  C   UNL     1      24.625  21.322 -11.047  1.00  0.00     0.223 C 
ATOM     40  O   UNL     1      23.929  21.309 -12.027  1.00  0.00    -0.275 OA
BRANCH  39  41
ATOM     41  C   UNL     1      24.218  20.482  -9.847  1.00  0.00     0.102 C 
BRANCH  41  42
ATOM     42  C   UNL     1      24.747  19.075  -9.977  1.00  0.00     0.042 C 
BRANCH  42  43
ATOM     43  C   UNL     1      25.239  18.451  -8.702  1.00  0.00     0.180 C 
BRANCH  43  44
ATOM     44  C   UNL     1      26.242  19.334  -8.013  1.00  0.00     0.321 C 
ATOM     45  O   UNL     1      27.297  19.725  -8.610  1.00  0.00    -0.251 OA
BRANCH  44  46
ATOM     46  O   UNL     1      25.941  19.638  -6.827  1.00  0.00    -0.480 OA
ATOM     47  H   UNL     1      25.807  18.927  -6.152  1.00  0.00     0.296 HD
ENDBRANCH  44  46
ENDBRANCH  43  44
BRANCH  43  48
ATOM     48  N   UNL     1      25.715  17.138  -9.076  1.00  0.00    -0.197 NA
ATOM     49  H   UNL     1      25.111  16.766  -9.823  1.00  0.00     0.142 HD
BRANCH  48  50
ATOM     50  S   UNL     1      25.699  16.102  -7.825  1.00  0.00     0.241 S 
ATOM     51  O   UNL     1      25.218  14.839  -8.401  1.00  0.00    -0.207 OA
ATOM     52  O   UNL     1      24.853  16.581  -6.750  1.00  0.00    -0.207 OA
BRANCH  50  53
ATOM     53  C   UNL     1      27.135  15.927  -7.168  1.00  0.00     0.082 A 
ATOM     54  C   UNL     1      27.282  15.908  -5.803  1.00  0.00     0.024 A 
ATOM     55  C   UNL     1      28.280  15.838  -7.968  1.00  0.00     0.024 A 
ATOM     56  C   UNL     1      28.576  15.766  -5.289  1.00  0.00     0.027 A 
ATOM     57  C   UNL     1      29.578  15.705  -7.446  1.00  0.00     0.027 A 
ATOM     58  C   UNL     1      29.716  15.651  -6.078  1.00  0.00     0.041 A 
BRANCH  58  59
ATOM     59  N   UNL     1      30.881  15.574  -5.408  1.00  0.00    -0.322 N 
ATOM     60  C   UNL     1      31.042  15.317  -4.112  1.00  0.00     0.255 C 
ATOM     61  O   UNL     1      30.125  15.139  -3.338  1.00  0.00    -0.269 OA
ATOM     62  H   UNL     1      31.738  15.732  -5.956  1.00  0.00     0.170 HD
BRANCH  60  63
ATOM     63  C   UNL     1      32.435  15.190  -3.646  1.00  0.00     0.040 A 
ATOM     64  C   UNL     1      33.529  15.464  -4.491  1.00  0.00     0.014 A 
ATOM     65  C   UNL     1      32.647  14.700  -2.396  1.00  0.00     0.014 A 
ATOM     66  C   UNL     1      34.832  15.272  -4.077  1.00  0.00     0.014 A 
ATOM     67  C   UNL     1      33.944  14.513  -1.953  1.00  0.00     0.014 A 
ATOM     68  C   UNL     1      35.031  14.795  -2.796  1.00  0.00     0.039 A 
BRANCH  68  69
ATOM     69  C   UNL     1      36.418  14.558  -2.273  1.00  0.00     0.248 C 
ATOM     70  O   UNL     1      36.569  13.817  -1.345  1.00  0.00    -0.270 OA
ATOM     71  N   UNL     1      37.468  15.131  -2.854  1.00  0.00    -0.366 N 
ATOM     72  H   UNL     1      38.415  14.962  -2.488  1.00  0.00     0.159 HD
ATOM     73  H   UNL     1      37.334  15.744  -3.671  1.00  0.00     0.159 HD
ENDBRANCH  68  69
ENDBRANCH  60  63
ENDBRANCH  58  59
ENDBRANCH  50  53
ENDBRANCH  48  50
ENDBRANCH  43  48
ENDBRANCH  42  43
ENDBRANCH  41  42
ENDBRANCH  39  41
ENDBRANCH   3  39
BRANCH   5  74
ATOM     74  N   UNL     1      27.481  23.654 -13.011  1.00  0.00    -0.326 NA
ATOM     75  H   UNL     1      28.310  23.544 -13.613  1.00  0.00     0.119 HD
ATOM     76  H   UNL     1      26.670  23.201 -13.457  1.00  0.00     0.119 HD
ENDBRANCH   5  74
TORSDOF 30
ENDMDL
MODEL 8
REMARK VINA RESULT:    -9.104      2.241      5.025
REMARK INTER + INTRA:         -28.924
REMARK INTER:                 -24.594
REMARK INTRA:                  -4.330
REMARK UNBOUND:                -4.652
REMARK SMILES CC(C)C[C@H](NC(=O)[C@@H]1C[C@H](N)CN1C(=O)CC[C@@H](NS(=O)(=O)c1ccc(NC(=O)c2ccc(C(N)=O)cc2)cc1)C(=O)O)C(=O)N(C)[C@@H](CCC(=O)O)C(=O)NCCCCC(N)=O
REMARK SMILES IDX 9 1 10 2 14 3 13 4 11 5 7 6 6 7 8 8 5 10 45 11 46 12 47 13
REMARK SMILES IDX 48 14 49 15 50 16 51 17 52 18 53 19 54 20 55 22 56 23 57 24
REMARK SMILES IDX 58 26 59 27 60 28 61 29 62 30 63 31 64 32 4 35 2 36 1 37
REMARK SMILES IDX 3 38 15 39 16 40 17 41 18 42 19 43 42 44 43 45 44 46 20 48
REMARK SMILES IDX 21 50 22 51 23 52 24 53 41 54 25 55 40 56 26 57 27 58 28 59
REMARK SMILES IDX 29 60 30 61 31 63 39 64 32 65 38 66 33 67 34 68 35 69 37 70
REMARK SMILES IDX 36 71 12 74
REMARK H PARENT 6 9 54 21 57 25 63 33 63 34 44 47 20 49 28 62 36 72 36 73
REMARK H PARENT 12 75 12 76
ROOT
ATOM      1  C   UNL     1      25.434  23.282 -10.352  1.00  0.00     0.176 C 
ATOM      2  C   UNL     1      26.852  23.814 -10.164  1.00  0.00     0.055 C 
ATOM      3  N   UNL     1      25.586  21.919 -10.884  1.00  0.00    -0.329 N 
ATOM      4  C   UNL     1      26.976  21.613 -11.125  1.00  0.00     0.139 C 
ATOM      5  C   UNL     1      27.677  22.950 -11.067  1.00  0.00     0.072 C 
ENDROOT
BRANCH   1   6
ATOM      6  C   UNL     1      24.691  24.216 -11.319  1.00  0.00     0.243 C 
ATOM      7  N   UNL     1      23.681  24.913 -10.790  1.00  0.00    -0.342 N 
ATOM      8  O   UNL     1      25.042  24.293 -12.502  1.00  0.00    -0.273 OA
ATOM      9  H   UNL     1      23.463  24.814  -9.788  1.00  0.00     0.164 HD
BRANCH   7  10
ATOM     10  C   UNL     1      22.884  25.814 -11.616  1.00  0.00     0.171 C 
BRANCH  10  11
ATOM     11  C   UNL     1      22.985  27.300 -11.363  1.00  0.00     0.245 C 
ATOM     12  O   UNL     1      22.902  27.649 -10.196  1.00  0.00    -0.272 OA
BRANCH  11  13
ATOM     13  N   UNL     1      23.095  28.125 -12.462  1.00  0.00    -0.332 N 
ATOM     14  C   UNL     1      24.292  28.471 -13.259  1.00  0.00     0.147 C 
BRANCH  13  15
ATOM     15  C   UNL     1      21.919  28.848 -12.929  1.00  0.00     0.174 C 
BRANCH  15  16
ATOM     16  C   UNL     1      22.235  30.348 -12.801  1.00  0.00     0.047 C 
BRANCH  16  17
ATOM     17  C   UNL     1      21.835  30.778 -11.406  1.00  0.00     0.125 C 
BRANCH  17  18
ATOM     18  C   UNL     1      23.050  31.180 -10.605  1.00  0.00     0.303 C 
ATOM     19  O   UNL     1      24.135  31.367 -11.219  1.00  0.00    -0.252 OA
BRANCH  18  20
ATOM     20  O   UNL     1      22.898  31.306  -9.360  1.00  0.00    -0.481 OA
ATOM     21  H   UNL     1      23.579  30.946  -8.739  1.00  0.00     0.296 HD
ENDBRANCH  18  20
ENDBRANCH  17  18
ENDBRANCH  16  17
ENDBRANCH  15  16
BRANCH  15  22
ATOM     22  C   UNL     1      21.561  28.505 -14.347  1.00  0.00     0.242 C 
ATOM     23  O   UNL     1      21.670  29.280 -15.294  1.00  0.00    -0.273 OA
ATOM     24  N   UNL     1      21.101  27.286 -14.454  1.00  0.00    -0.354 N 
ATOM     25  H   UNL     1      21.067  26.712 -13.600  1.00  0.00     0.163 HD
BRANCH  24  26
ATOM     26  C   UNL     1      20.641  26.693 -15.667  1.00  0.00     0.116 C 
BRANCH  26  27
ATOM     27  C   UNL     1      21.396  25.373 -15.842  1.00  0.00     0.022 C 
BRANCH  27  28
ATOM     28  C   UNL     1      21.049  24.233 -14.840  1.00  0.00     0.012 C 
BRANCH  28  29
ATOM     29  C   UNL     1      21.258  22.858 -15.466  1.00  0.00     0.100 C 
BRANCH  29  30
ATOM     30  C   UNL     1      22.755  22.556 -15.619  1.00  0.00     0.217 C 
ATOM     31  N   UNL     1      23.544  22.771 -14.557  1.00  0.00    -0.370 N 
ATOM     32  O   UNL     1      23.201  22.142 -16.682  1.00  0.00    -0.275 OA
ATOM     33  H   UNL     1      24.554  22.581 -14.619  1.00  0.00     0.159 HD
ATOM     34  H   UNL     1      23.140  23.126 -13.679  1.00  0.00     0.159 HD
ENDBRANCH  29  30
ENDBRANCH  28  29
ENDBRANCH  27  28
ENDBRANCH  26  27
ENDBRANCH  24  26
ENDBRANCH  15  22
ENDBRANCH  13  15
ENDBRANCH  11  13
ENDBRANCH  10  11
BRANCH  10  35
ATOM     35  C   UNL     1      21.421  25.408 -11.428  1.00  0.00     0.038 C 
BRANCH  35  36
ATOM     36  C   UNL     1      21.289  24.248 -10.448  1.00  0.00    -0.015 C 
ATOM     37  C   UNL     1      20.181  24.525  -9.444  1.00  0.00     0.007 C 
ATOM     38  C   UNL     1      21.074  22.940 -11.205  1.00  0.00     0.007 C 
ENDBRANCH  35  36
ENDBRANCH  10  35
ENDBRANCH   7  10
ENDBRANCH   1   6
BRANCH   3  39
ATOM     39  C   UNL     1      24.549  21.151 -11.151  1.00  0.00     0.223 C 
ATOM     40  O   UNL     1      24.019  21.211 -12.227  1.00  0.00    -0.275 OA
BRANCH  39  41
ATOM     41  C   UNL     1      24.010  20.170 -10.121  1.00  0.00     0.102 C 
BRANCH  41  42
ATOM     42  C   UNL     1      24.727  18.846 -10.220  1.00  0.00     0.042 C 
BRANCH  42  43
ATOM     43  C   UNL     1      25.283  18.316  -8.929  1.00  0.00     0.180 C 
BRANCH  43  44
ATOM     44  C   UNL     1      26.230  19.298  -8.297  1.00  0.00     0.321 C 
ATOM     45  O   UNL     1      25.842  20.092  -7.381  1.00  0.00    -0.251 OA
BRANCH  44  46
ATOM     46  O   UNL     1      27.405  19.255  -8.751  1.00  0.00    -0.480 OA
ATOM     47  H   UNL     1      27.694  19.901  -9.443  1.00  0.00     0.296 HD
ENDBRANCH  44  46
ENDBRANCH  43  44
BRANCH  43  48
ATOM     48  N   UNL     1      25.848  17.025  -9.256  1.00  0.00    -0.197 NA
ATOM     49  H   UNL     1      25.336  16.632 -10.059  1.00  0.00     0.142 HD
BRANCH  48  50
ATOM     50  S   UNL     1      25.751  15.983  -8.014  1.00  0.00     0.241 S 
ATOM     51  O   UNL     1      25.403  14.700  -8.637  1.00  0.00    -0.207 OA
ATOM     52  O   UNL     1      24.770  16.412  -7.036  1.00  0.00    -0.207 OA
BRANCH  50  53
ATOM     53  C   UNL     1      27.116  15.881  -7.206  1.00  0.00     0.082 A 
ATOM     54  C   UNL     1      28.304  15.675  -7.863  1.00  0.00     0.024 A 
ATOM     55  C   UNL     1      27.125  15.949  -5.808  1.00  0.00     0.024 A 
ATOM     56  C   UNL     1      29.468  15.578  -7.091  1.00  0.00     0.027 A 
ATOM     57  C   UNL     1      28.296  15.843  -5.038  1.00  0.00     0.027 A 
ATOM     58  C   UNL     1      29.488  15.672  -5.703  1.00  0.00     0.041 A 
BRANCH  58  59
ATOM     59  N   UNL     1      30.693  15.504  -5.128  1.00  0.00    -0.322 N 
ATOM     60  C   UNL     1      30.940  15.274  -3.841  1.00  0.00     0.255 C 
ATOM     61  O   UNL     1      30.080  15.212  -2.987  1.00  0.00    -0.269 OA
ATOM     62  H   UNL     1      31.511  15.558  -5.751  1.00  0.00     0.170 HD
BRANCH  60  63
ATOM     63  C   UNL     1      32.349  15.027  -3.486  1.00  0.00     0.040 A 
ATOM     64  C   UNL     1      32.729  14.627  -2.189  1.00  0.00     0.014 A 
ATOM     65  C   UNL     1      33.299  15.291  -4.421  1.00  0.00     0.014 A 
ATOM     66  C   UNL     1      34.054  14.468  -1.835  1.00  0.00     0.014 A 
ATOM     67  C   UNL     1      34.634  15.125  -4.097  1.00  0.00     0.014 A 
ATOM     68  C   UNL     1      35.006  14.720  -2.805  1.00  0.00     0.039 A 
BRANCH  68  69
ATOM     69  C   UNL     1      36.468  14.572  -2.499  1.00  0.00     0.248 C 
ATOM     70  O   UNL     1      36.795  14.053  -1.470  1.00  0.00    -0.270 OA
ATOM     71  N   UNL     1      37.387  14.973  -3.372  1.00  0.00    -0.366 N 
ATOM     72  H   UNL     1      38.388  14.867  -3.152  1.00  0.00     0.159 HD
ATOM     73  H   UNL     1      37.099  15.391  -4.267  1.00  0.00     0.159 HD
ENDBRANCH  68  69
ENDBRANCH  60  63
ENDBRANCH  58  59
ENDBRANCH  50  53
ENDBRANCH  48  50
ENDBRANCH  43  48
ENDBRANCH  42  43
ENDBRANCH  41  42
ENDBRANCH  39  41
ENDBRANCH   3  39
BRANCH   5  74
ATOM     74  N   UNL     1      27.753  23.514 -12.416  1.00  0.00    -0.326 NA
ATOM     75  H   UNL     1      27.132  24.333 -12.481  1.00  0.00     0.119 HD
ATOM     76  H   UNL     1      28.722  23.800 -12.614  1.00  0.00     0.119 HD
ENDBRANCH   5  74
TORSDOF 30
ENDMDL
MODEL 9
REMARK VINA RESULT:    -9.097      2.235      6.094
REMARK INTER + INTRA:         -28.905
REMARK INTER:                 -24.569
REMARK INTRA:                  -4.336
REMARK UNBOUND:                -4.652
REMARK SMILES CC(C)C[C@H](NC(=O)[C@@H]1C[C@H](N)CN1C(=O)CC[C@@H](NS(=O)(=O)c1ccc(NC(=O)c2ccc(C(N)=O)cc2)cc1)C(=O)O)C(=O)N(C)[C@@H](CCC(=O)O)C(=O)NCCCCC(N)=O
REMARK SMILES IDX 9 1 10 2 14 3 13 4 11 5 7 6 6 7 8 8 5 10 45 11 46 12 47 13
REMARK SMILES IDX 48 14 49 15 50 16 51 17 52 18 53 19 54 20 55 22 56 23 57 24
REMARK SMILES IDX 58 26 59 27 60 28 61 29 62 30 63 31 64 32 4 35 2 36 1 37
REMARK SMILES IDX 3 38 15 39 16 40 17 41 18 42 19 43 42 44 43 45 44 46 20 48
REMARK SMILES IDX 21 50 22 51 23 52 24 53 41 54 25 55 40 56 26 57 27 58 28 59
REMARK SMILES IDX 29 60 30 61 31 63 39 64 32 65 38 66 33 67 34 68 35 69 37 70
REMARK SMILES IDX 36 71 12 74
REMARK H PARENT 6 9 54 21 57 25 63 33 63 34 44 47 20 49 28 62 36 72 36 73
REMARK H PARENT 12 75 12 76
ROOT
ATOM      1  C   UNL     1      26.242  19.754 -12.835  1.00  0.00     0.176 C 
ATOM      2  C   UNL     1      27.201  19.886 -14.015  1.00  0.00     0.055 C 
ATOM      3  N   UNL     1      25.411  18.576 -13.125  1.00  0.00    -0.329 N 
ATOM      4  C   UNL     1      25.720  18.037 -14.429  1.00  0.00     0.139 C 
ATOM      5  C   UNL     1      26.522  19.121 -15.109  1.00  0.00     0.072 C 
ENDROOT
BRANCH   1   6
ATOM      6  C   UNL     1      25.420  21.047 -12.731  1.00  0.00     0.243 C 
ATOM      7  N   UNL     1      24.489  21.067 -11.773  1.00  0.00    -0.342 N 
ATOM      8  O   UNL     1      25.644  21.990 -13.500  1.00  0.00    -0.273 OA
ATOM      9  H   UNL     1      24.377  20.252 -11.154  1.00  0.00     0.164 HD
BRANCH   7  10
ATOM     10  C   UNL     1      23.628  22.232 -11.595  1.00  0.00     0.171 C 
BRANCH  10  11
ATOM     11  C   UNL     1      24.016  23.261 -10.559  1.00  0.00     0.245 C 
ATOM     12  O   UNL     1      23.985  22.887  -9.397  1.00  0.00    -0.272 OA
BRANCH  11  13
ATOM     13  N   UNL     1      24.304  24.533 -11.006  1.00  0.00    -0.332 N 
ATOM     14  C   UNL     1      25.471  25.391 -10.704  1.00  0.00     0.147 C 
BRANCH  13  15
ATOM     15  C   UNL     1      23.339  25.226 -11.849  1.00  0.00     0.174 C 
BRANCH  15  16
ATOM     16  C   UNL     1      22.568  26.200 -10.941  1.00  0.00     0.047 C 
BRANCH  16  17
ATOM     17  C   UNL     1      21.118  25.769 -10.940  1.00  0.00     0.125 C 
BRANCH  17  18
ATOM     18  C   UNL     1      20.827  24.888  -9.749  1.00  0.00     0.303 C 
ATOM     19  O   UNL     1      19.808  24.146  -9.790  1.00  0.00    -0.252 OA
BRANCH  18  20
ATOM     20  O   UNL     1      21.632  24.950  -8.781  1.00  0.00    -0.481 OA
ATOM     21  H   UNL     1      21.696  25.779  -8.243  1.00  0.00     0.296 HD
ENDBRANCH  18  20
ENDBRANCH  17  18
ENDBRANCH  16  17
ENDBRANCH  15  16
BRANCH  15  22
ATOM     22  C   UNL     1      23.994  25.967 -12.980  1.00  0.00     0.242 C 
ATOM     23  O   UNL     1      24.723  25.443 -13.819  1.00  0.00    -0.273 OA
ATOM     24  N   UNL     1      23.712  27.243 -12.957  1.00  0.00    -0.354 N 
ATOM     25  H   UNL     1      23.075  27.578 -12.220  1.00  0.00     0.163 HD
BRANCH  24  26
ATOM     26  C   UNL     1      24.221  28.207 -13.877  1.00  0.00     0.116 C 
BRANCH  26  27
ATOM     27  C   UNL     1      24.694  29.411 -13.060  1.00  0.00     0.022 C 
BRANCH  27  28
ATOM     28  C   UNL     1      23.941  29.686 -11.724  1.00  0.00     0.012 C 
BRANCH  28  29
ATOM     29  C   UNL     1      23.175  31.003 -11.776  1.00  0.00     0.100 C 
BRANCH  29  30
ATOM     30  C   UNL     1      22.522  31.302 -10.419  1.00  0.00     0.217 C 
ATOM     31  N   UNL     1      21.240  31.692 -10.420  1.00  0.00    -0.370 N 
ATOM     32  O   UNL     1      23.163  31.192  -9.382  1.00  0.00    -0.275 OA
ATOM     33  H   UNL     1      20.765  31.902  -9.530  1.00  0.00     0.159 HD
ATOM     34  H   UNL     1      20.729  31.781 -11.309  1.00  0.00     0.159 HD
ENDBRANCH  29  30
ENDBRANCH  28  29
ENDBRANCH  27  28
ENDBRANCH  26  27
ENDBRANCH  24  26
ENDBRANCH  15  22
ENDBRANCH  13  15
ENDBRANCH  11  13
ENDBRANCH  10  11
BRANCH  10  35
ATOM     35  C   UNL     1      22.240  21.704 -11.228  1.00  0.00     0.038 C 
BRANCH  35  36
ATOM     36  C   UNL     1      21.187  22.173 -12.226  1.00  0.00    -0.015 C 
ATOM     37  C   UNL     1      21.820  22.440 -13.582  1.00  0.00     0.007 C 
ATOM     38  C   UNL     1      20.047  21.159 -12.306  1.00  0.00     0.007 C 
ENDBRANCH  35  36
ENDBRANCH  10  35
ENDBRANCH   7  10
ENDBRANCH   1   6
BRANCH   3  39
ATOM     39  C   UNL     1      24.476  18.155 -12.297  1.00  0.00     0.223 C 
ATOM     40  O   UNL     1      23.317  18.310 -12.573  1.00  0.00    -0.275 OA
BRANCH  39  41
ATOM     41  C   UNL     1      24.834  17.461 -10.993  1.00  0.00     0.102 C 
BRANCH  41  42
ATOM     42  C   UNL     1      24.402  18.293  -9.810  1.00  0.00     0.042 C 
BRANCH  42  43
ATOM     43  C   UNL     1      25.327  18.260  -8.627  1.00  0.00     0.180 C 
BRANCH  43  44
ATOM     44  C   UNL     1      26.108  19.539  -8.507  1.00  0.00     0.321 C 
ATOM     45  O   UNL     1      27.019  19.676  -7.628  1.00  0.00    -0.251 OA
BRANCH  44  46
ATOM     46  O   UNL     1      25.783  20.428  -9.340  1.00  0.00    -0.480 OA
ATOM     47  H   UNL     1      26.185  21.331  -9.282  1.00  0.00     0.296 HD
ENDBRANCH  44  46
ENDBRANCH  43  44
BRANCH  43  48
ATOM     48  N   UNL     1      26.115  17.058  -8.791  1.00  0.00    -0.197 NA
ATOM     49  H   UNL     1      25.743  16.523  -9.588  1.00  0.00     0.142 HD
BRANCH  48  50
ATOM     50  S   UNL     1      26.079  16.118  -7.467  1.00  0.00     0.241 S 
ATOM     51  O   UNL     1      25.527  14.842  -7.939  1.00  0.00    -0.207 OA
ATOM     52  O   UNL     1      25.280  16.714  -6.414  1.00  0.00    -0.207 OA
BRANCH  50  53
ATOM     53  C   UNL     1      27.520  15.922  -6.827  1.00  0.00     0.082 A 
ATOM     54  C   UNL     1      27.664  15.720  -5.476  1.00  0.00     0.024 A 
ATOM     55  C   UNL     1      28.670  16.000  -7.620  1.00  0.00     0.024 A 
ATOM     56  C   UNL     1      28.962  15.570  -4.974  1.00  0.00     0.027 A 
ATOM     57  C   UNL     1      29.971  15.857  -7.109  1.00  0.00     0.027 A 
ATOM     58  C   UNL     1      30.108  15.620  -5.761  1.00  0.00     0.041 A 
BRANCH  58  59
ATOM     59  N   UNL     1      31.273  15.507  -5.096  1.00  0.00    -0.322 N 
ATOM     60  C   UNL     1      31.432  15.298  -3.792  1.00  0.00     0.255 C 
ATOM     61  O   UNL     1      30.515  15.206  -3.003  1.00  0.00    -0.269 OA
ATOM     62  H   UNL     1      32.133  15.591  -5.657  1.00  0.00     0.170 HD
BRANCH  60  63
ATOM     63  C   UNL     1      32.820  15.112  -3.330  1.00  0.00     0.040 A 
ATOM     64  C   UNL     1      33.916  15.227  -4.208  1.00  0.00     0.014 A 
ATOM     65  C   UNL     1      33.018  14.723  -2.043  1.00  0.00     0.014 A 
ATOM     66  C   UNL     1      35.210  14.979  -3.793  1.00  0.00     0.014 A 
ATOM     67  C   UNL     1      34.306  14.483  -1.598  1.00  0.00     0.014 A 
ATOM     68  C   UNL     1      35.396  14.607  -2.476  1.00  0.00     0.039 A 
BRANCH  68  69
ATOM     69  C   UNL     1      36.771  14.317  -1.948  1.00  0.00     0.248 C 
ATOM     70  O   UNL     1      36.899  13.502  -1.081  1.00  0.00    -0.270 OA
ATOM     71  N   UNL     1      37.835  14.927  -2.461  1.00  0.00    -0.366 N 
ATOM     72  H   UNL     1      38.774  14.721  -2.092  1.00  0.00     0.159 HD
ATOM     73  H   UNL     1      37.721  15.605  -3.227  1.00  0.00     0.159 HD
ENDBRANCH  68  69
ENDBRANCH  60  63
ENDBRANCH  58  59
ENDBRANCH  50  53
ENDBRANCH  48  50
ENDBRANCH  43  48
ENDBRANCH  42  43
ENDBRANCH  41  42
ENDBRANCH  39  41
ENDBRANCH   3  39
BRANCH   5  74
ATOM     74  N   UNL     1      25.620  19.980 -15.877  1.00  0.00    -0.326 NA
ATOM     75  H   UNL     1      24.833  19.420 -16.234  1.00  0.00     0.119 HD
ATOM     76  H   UNL     1      25.260  20.730 -15.269  1.00  0.00     0.119 HD
ENDBRANCH   5  74
TORSDOF 30
ENDMDL
