MODEL 1
REMARK VINA RESULT:    -8.534      0.000      0.000
REMARK INTER + INTRA:         -14.077
REMARK INTER:                 -13.023
REMARK INTRA:                  -1.054
REMARK UNBOUND:                -1.054
REMARK SMILES CC(C)ON([C@@H](C(=O)N=O)C(C)C)S(=O)(=O)c1ccc(-c2ccccc2)cc1
REMARK SMILES IDX 5 1 14 2 15 3 16 4 17 5 18 6 28 7 19 8 27 9 20 10 21 11
REMARK SMILES IDX 22 12 26 13 23 14 25 15 24 16 4 17 2 18 1 19 3 20 6 21 11 22
REMARK SMILES IDX 12 23 13 24 7 25 8 26 9 27 10 28
REMARK H PARENT
ROOT
ATOM      1  N   UNL     1      26.008  16.790  -9.153  1.00  0.00    -0.064 NA
ENDROOT
BRANCH   1   2
ATOM      2  S   UNL     1      25.580  15.866  -8.070  1.00  0.00     0.265 S 
ATOM      3  O   UNL     1      25.211  14.575  -8.645  1.00  0.00    -0.205 OA
ATOM      4  O   UNL     1      24.490  16.411  -7.250  1.00  0.00    -0.205 OA
BRANCH   2   5
ATOM      5  C   UNL     1      27.082  15.710  -7.016  1.00  0.00     0.084 A 
ATOM      6  C   UNL     1      26.952  15.686  -5.591  1.00  0.00     0.022 A 
ATOM      7  C   UNL     1      28.375  15.650  -7.639  1.00  0.00     0.022 A 
ATOM      8  C   UNL     1      28.164  15.586  -4.775  1.00  0.00     0.010 A 
ATOM      9  C   UNL     1      29.584  15.554  -6.821  1.00  0.00     0.010 A 
ATOM     10  C   UNL     1      29.452  15.515  -5.401  1.00  0.00    -0.018 A 
BRANCH  10  11
ATOM     11  C   UNL     1      30.711  15.412  -4.504  1.00  0.00    -0.018 A 
ATOM     12  C   UNL     1      32.115  15.617  -5.097  1.00  0.00     0.009 A 
ATOM     13  C   UNL     1      30.561  15.034  -3.207  1.00  0.00     0.009 A 
ATOM     14  C   UNL     1      33.230  15.491  -4.293  1.00  0.00     0.001 A 
ATOM     15  C   UNL     1      31.826  14.894  -2.296  1.00  0.00     0.001 A 
ATOM     16  C   UNL     1      33.056  15.107  -2.806  1.00  0.00     0.000 A 
ENDBRANCH  10  11
ENDBRANCH   2   5
ENDBRANCH   1   2
BRANCH   1  17
ATOM     17  O   UNL     1      25.970  16.281 -10.313  1.00  0.00    -0.281 OA
BRANCH  17  18
ATOM     18  C   UNL     1      27.193  15.860 -10.933  1.00  0.00     0.137 C 
ATOM     19  C   UNL     1      27.045  14.455 -11.540  1.00  0.00     0.040 C 
ATOM     20  C   UNL     1      27.617  16.837 -12.030  1.00  0.00     0.040 C 
ENDBRANCH  17  18
ENDBRANCH   1  17
BRANCH   1  21
ATOM     21  C   UNL     1      25.555  18.092  -9.065  1.00  0.00     0.200 C 
BRANCH  21  22
ATOM     22  C   UNL     1      25.177  18.739 -10.437  1.00  0.00     0.013 C 
ATOM     23  C   UNL     1      24.031  18.013 -11.160  1.00  0.00     0.010 C 
ATOM     24  C   UNL     1      24.723  20.186 -10.250  1.00  0.00     0.010 C 
ENDBRANCH  21  22
BRANCH  21  25
ATOM     25  C   UNL     1      26.757  18.900  -8.532  1.00  0.00     0.307 C 
ATOM     26  O   UNL     1      27.800  18.860  -9.099  1.00  0.00    -0.267 OA
BRANCH  25  27
ATOM     27  N   UNL     1      26.630  19.727  -7.353  1.00  0.00     0.010 NA
ATOM     28  O   UNL     1      26.074  19.292  -6.410  1.00  0.00    -0.142 OA
ENDBRANCH  25  27
ENDBRANCH  21  25
ENDBRANCH   1  21
TORSDOF 9
ENDMDL
MODEL 2
REMARK VINA RESULT:    -7.640      1.305      1.862
REMARK INTER + INTRA:         -12.713
REMARK INTER:                 -11.942
REMARK INTRA:                  -0.771
REMARK UNBOUND:                -1.054
REMARK SMILES CC(C)ON([C@@H](C(=O)N=O)C(C)C)S(=O)(=O)c1ccc(-c2ccccc2)cc1
REMARK SMILES IDX 5 1 14 2 15 3 16 4 17 5 18 6 28 7 19 8 27 9 20 10 21 11
REMARK SMILES IDX 22 12 26 13 23 14 25 15 24 16 4 17 2 18 1 19 3 20 6 21 11 22
REMARK SMILES IDX 12 23 13 24 7 25 8 26 9 27 10 28
REMARK H PARENT
ROOT
ATOM      1  N   UNL     1      26.306  16.374  -8.742  1.00  0.00    -0.064 NA
ENDROOT
BRANCH   1   2
ATOM      2  S   UNL     1      25.925  16.496  -7.311  1.00  0.00     0.265 S 
ATOM      3  O   UNL     1      24.888  15.515  -6.996  1.00  0.00    -0.205 OA
ATOM      4  O   UNL     1      25.499  17.853  -6.945  1.00  0.00    -0.205 OA
BRANCH   2   5
ATOM      5  C   UNL     1      27.486  16.111  -6.413  1.00  0.00     0.084 A 
ATOM      6  C   UNL     1      27.470  15.964  -4.990  1.00  0.00     0.022 A 
ATOM      7  C   UNL     1      28.712  15.997  -7.153  1.00  0.00     0.022 A 
ATOM      8  C   UNL     1      28.730  15.683  -4.297  1.00  0.00     0.010 A 
ATOM      9  C   UNL     1      29.970  15.720  -6.458  1.00  0.00     0.010 A 
ATOM     10  C   UNL     1      29.950  15.559  -5.041  1.00  0.00    -0.018 A 
BRANCH  10  11
ATOM     11  C   UNL     1      31.263  15.263  -4.272  1.00  0.00    -0.018 A 
ATOM     12  C   UNL     1      31.223  14.737  -2.828  1.00  0.00     0.009 A 
ATOM     13  C   UNL     1      32.449  15.574  -4.859  1.00  0.00     0.009 A 
ATOM     14  C   UNL     1      32.401  14.506  -2.144  1.00  0.00     0.001 A 
ATOM     15  C   UNL     1      33.782  15.311  -4.083  1.00  0.00     0.001 A 
ATOM     16  C   UNL     1      33.751  14.817  -2.828  1.00  0.00     0.000 A 
ENDBRANCH  10  11
ENDBRANCH   2   5
ENDBRANCH   1   2
BRANCH   1  17
ATOM     17  O   UNL     1      26.036  15.247  -9.257  1.00  0.00    -0.281 OA
BRANCH  17  18
ATOM     18  C   UNL     1      27.101  14.322  -9.513  1.00  0.00     0.137 C 
ATOM     19  C   UNL     1      26.965  13.071  -8.629  1.00  0.00     0.040 C 
ATOM     20  C   UNL     1      27.117  13.897 -10.982  1.00  0.00     0.040 C 
ENDBRANCH  17  18
ENDBRANCH   1  17
BRANCH   1  21
ATOM     21  C   UNL     1      26.041  17.468  -9.544  1.00  0.00     0.200 C 
BRANCH  21  22
ATOM     22  C   UNL     1      25.734  17.116 -11.035  1.00  0.00     0.013 C 
ATOM     23  C   UNL     1      24.328  16.530 -11.249  1.00  0.00     0.010 C 
ATOM     24  C   UNL     1      25.821  18.360 -11.918  1.00  0.00     0.010 C 
ENDBRANCH  21  22
BRANCH  21  25
ATOM     25  C   UNL     1      27.353  18.280  -9.562  1.00  0.00     0.307 C 
ATOM     26  O   UNL     1      28.350  17.791  -9.986  1.00  0.00    -0.267 OA
BRANCH  25  27
ATOM     27  N   UNL     1      27.388  19.644  -9.083  1.00  0.00     0.010 NA
ATOM     28  O   UNL     1      26.457  20.339  -9.278  1.00  0.00    -0.142 OA
ENDBRANCH  25  27
ENDBRANCH  21  25
ENDBRANCH   1  21
TORSDOF 9
ENDMDL
MODEL 3
REMARK VINA RESULT:    -7.339      1.748      2.667
REMARK INTER + INTRA:         -12.255
REMARK INTER:                 -11.604
REMARK INTRA:                  -0.651
REMARK UNBOUND:                -1.054
REMARK SMILES CC(C)ON([C@@H](C(=O)N=O)C(C)C)S(=O)(=O)c1ccc(-c2ccccc2)cc1
REMARK SMILES IDX 5 1 14 2 15 3 16 4 17 5 18 6 28 7 19 8 27 9 20 10 21 11
REMARK SMILES IDX 22 12 26 13 23 14 25 15 24 16 4 17 2 18 1 19 3 20 6 21 11 22
REMARK SMILES IDX 12 23 13 24 7 25 8 26 9 27 10 28
REMARK H PARENT
ROOT
ATOM      1  N   UNL     1      26.388  15.789  -9.558  1.00  0.00    -0.064 NA
ENDROOT
BRANCH   1   2
ATOM      2  S   UNL     1      25.906  16.325  -8.257  1.00  0.00     0.265 S 
ATOM      3  O   UNL     1      24.726  15.577  -7.827  1.00  0.00    -0.205 OA
ATOM      4  O   UNL     1      25.633  17.767  -8.297  1.00  0.00    -0.205 OA
BRANCH   2   5
ATOM      5  C   UNL     1      27.322  16.028  -7.117  1.00  0.00     0.084 A 
ATOM      6  C   UNL     1      27.091  15.921  -5.710  1.00  0.00     0.022 A 
ATOM      7  C   UNL     1      28.651  15.943  -7.655  1.00  0.00     0.022 A 
ATOM      8  C   UNL     1      28.237  15.711  -4.821  1.00  0.00     0.010 A 
ATOM      9  C   UNL     1      29.795  15.737  -6.765  1.00  0.00     0.010 A 
ATOM     10  C   UNL     1      29.561  15.615  -5.363  1.00  0.00    -0.018 A 
BRANCH  10  11
ATOM     11  C   UNL     1      30.748  15.394  -4.392  1.00  0.00    -0.018 A 
ATOM     12  C   UNL     1      32.196  15.611  -4.862  1.00  0.00     0.009 A 
ATOM     13  C   UNL     1      30.494  14.904  -3.150  1.00  0.00     0.009 A 
ATOM     14  C   UNL     1      33.246  15.380  -3.995  1.00  0.00     0.001 A 
ATOM     15  C   UNL     1      31.685  14.644  -2.168  1.00  0.00     0.001 A 
ATOM     16  C   UNL     1      32.954  14.867  -2.567  1.00  0.00     0.000 A 
ENDBRANCH  10  11
ENDBRANCH   2   5
ENDBRANCH   1   2
BRANCH   1  17
ATOM     17  O   UNL     1      26.100  14.570  -9.755  1.00  0.00    -0.281 OA
BRANCH  17  18
ATOM     18  C   UNL     1      27.125  13.577  -9.612  1.00  0.00     0.137 C 
ATOM     19  C   UNL     1      26.618  12.380  -8.791  1.00  0.00     0.040 C 
ATOM     20  C   UNL     1      27.603  13.081 -10.977  1.00  0.00     0.040 C 
ENDBRANCH  17  18
ENDBRANCH   1  17
BRANCH   1  21
ATOM     21  C   UNL     1      26.239  16.615 -10.655  1.00  0.00     0.200 C 
BRANCH  21  22
ATOM     22  C   UNL     1      25.471  15.968 -11.852  1.00  0.00     0.013 C 
ATOM     23  C   UNL     1      24.135  15.325 -11.445  1.00  0.00     0.010 C 
ATOM     24  C   UNL     1      25.141  17.012 -12.917  1.00  0.00     0.010 C 
ENDBRANCH  21  22
BRANCH  21  25
ATOM     25  C   UNL     1      27.675  16.871 -11.161  1.00  0.00     0.307 C 
ATOM     26  O   UNL     1      28.432  17.509 -10.506  1.00  0.00    -0.267 OA
BRANCH  25  27
ATOM     27  N   UNL     1      28.123  16.329 -12.425  1.00  0.00     0.010 NA
ATOM     28  O   UNL     1      28.738  17.020 -13.154  1.00  0.00    -0.142 OA
ENDBRANCH  25  27
ENDBRANCH  21  25
ENDBRANCH   1  21
TORSDOF 9
ENDMDL
MODEL 4
REMARK VINA RESULT:    -7.204      1.367      3.110
REMARK INTER + INTRA:         -12.048
REMARK INTER:                 -11.362
REMARK INTRA:                  -0.686
REMARK UNBOUND:                -1.054
REMARK SMILES CC(C)ON([C@@H](C(=O)N=O)C(C)C)S(=O)(=O)c1ccc(-c2ccccc2)cc1
REMARK SMILES IDX 5 1 14 2 15 3 16 4 17 5 18 6 28 7 19 8 27 9 20 10 21 11
REMARK SMILES IDX 22 12 26 13 23 14 25 15 24 16 4 17 2 18 1 19 3 20 6 21 11 22
REMARK SMILES IDX 12 23 13 24 7 25 8 26 9 27 10 28
REMARK H PARENT
ROOT
ATOM      1  N   UNL     1      25.840  17.126  -8.718  1.00  0.00    -0.064 NA
ENDROOT
BRANCH   1   2
ATOM      2  S   UNL     1      25.529  16.025  -7.769  1.00  0.00     0.265 S 
ATOM      3  O   UNL     1      25.259  14.798  -8.515  1.00  0.00    -0.205 OA
ATOM      4  O   UNL     1      24.420  16.348  -6.862  1.00  0.00    -0.205 OA
BRANCH   2   5
ATOM      5  C   UNL     1      27.071  15.864  -6.775  1.00  0.00     0.084 A 
ATOM      6  C   UNL     1      28.294  15.493  -7.416  1.00  0.00     0.022 A 
ATOM      7  C   UNL     1      27.017  16.079  -5.356  1.00  0.00     0.022 A 
ATOM      8  C   UNL     1      29.502  15.346  -6.599  1.00  0.00     0.010 A 
ATOM      9  C   UNL     1      28.224  15.928  -4.541  1.00  0.00     0.010 A 
ATOM     10  C   UNL     1      29.447  15.573  -5.184  1.00  0.00    -0.018 A 
BRANCH  10  11
ATOM     11  C   UNL     1      30.744  15.406  -4.353  1.00  0.00    -0.018 A 
ATOM     12  C   UNL     1      32.123  15.577  -5.011  1.00  0.00     0.009 A 
ATOM     13  C   UNL     1      30.645  15.004  -3.058  1.00  0.00     0.009 A 
ATOM     14  C   UNL     1      33.272  15.396  -4.267  1.00  0.00     0.001 A 
ATOM     15  C   UNL     1      31.947  14.800  -2.215  1.00  0.00     0.001 A 
ATOM     16  C   UNL     1      33.158  14.984  -2.782  1.00  0.00     0.000 A 
ENDBRANCH  10  11
ENDBRANCH   2   5
ENDBRANCH   1   2
BRANCH   1  17
ATOM     17  O   UNL     1      26.544  18.056  -8.221  1.00  0.00    -0.281 OA
BRANCH  17  18
ATOM     18  C   UNL     1      25.903  19.261  -7.782  1.00  0.00     0.137 C 
ATOM     19  C   UNL     1      26.275  19.581  -6.325  1.00  0.00     0.040 C 
ATOM     20  C   UNL     1      26.292  20.444  -8.669  1.00  0.00     0.040 C 
ENDBRANCH  17  18
ENDBRANCH   1  17
BRANCH   1  21
ATOM     21  C   UNL     1      26.181  16.751 -10.004  1.00  0.00     0.200 C 
BRANCH  21  22
ATOM     22  C   UNL     1      27.420  17.503 -10.588  1.00  0.00     0.013 C 
ATOM     23  C   UNL     1      28.706  17.287  -9.775  1.00  0.00     0.010 C 
ATOM     24  C   UNL     1      27.723  17.030 -12.010  1.00  0.00     0.010 C 
ENDBRANCH  21  22
BRANCH  21  25
ATOM     25  C   UNL     1      24.979  17.172 -10.876  1.00  0.00     0.307 C 
ATOM     26  O   UNL     1      24.233  16.350 -11.298  1.00  0.00    -0.267 OA
BRANCH  25  27
ATOM     27  N   UNL     1      24.735  18.565 -11.179  1.00  0.00     0.010 NA
ATOM     28  O   UNL     1      23.843  19.115 -10.642  1.00  0.00    -0.142 OA
ENDBRANCH  25  27
ENDBRANCH  21  25
ENDBRANCH   1  21
TORSDOF 9
ENDMDL
MODEL 5
REMARK VINA RESULT:    -6.927      3.195      5.715
REMARK INTER + INTRA:         -11.626
REMARK INTER:                 -10.838
REMARK INTRA:                  -0.788
REMARK UNBOUND:                -1.054
REMARK SMILES CC(C)ON([C@@H](C(=O)N=O)C(C)C)S(=O)(=O)c1ccc(-c2ccccc2)cc1
REMARK SMILES IDX 5 1 14 2 15 3 16 4 17 5 18 6 28 7 19 8 27 9 20 10 21 11
REMARK SMILES IDX 22 12 26 13 23 14 25 15 24 16 4 17 2 18 1 19 3 20 6 21 11 22
REMARK SMILES IDX 12 23 13 24 7 25 8 26 9 27 10 28
REMARK H PARENT
ROOT
ATOM      1  N   UNL     1      26.777  17.712  -8.891  1.00  0.00    -0.064 NA
ENDROOT
BRANCH   1   2
ATOM      2  S   UNL     1      27.992  17.098  -9.489  1.00  0.00     0.265 S 
ATOM      3  O   UNL     1      29.171  17.505  -8.727  1.00  0.00    -0.205 OA
ATOM      4  O   UNL     1      28.149  17.411 -10.915  1.00  0.00    -0.205 OA
BRANCH   2   5
ATOM      5  C   UNL     1      27.691  15.289  -9.316  1.00  0.00     0.084 A 
ATOM      6  C   UNL     1      27.052  14.571 -10.376  1.00  0.00     0.022 A 
ATOM      7  C   UNL     1      28.073  14.626  -8.101  1.00  0.00     0.022 A 
ATOM      8  C   UNL     1      26.801  13.138 -10.204  1.00  0.00     0.010 A 
ATOM      9  C   UNL     1      27.818  13.195  -7.930  1.00  0.00     0.010 A 
ATOM     10  C   UNL     1      27.194  12.477  -8.993  1.00  0.00    -0.018 A 
BRANCH  10  11
ATOM     11  C   UNL     1      26.910  10.961  -8.848  1.00  0.00    -0.018 A 
ATOM     12  C   UNL     1      27.825  10.072  -7.988  1.00  0.00     0.009 A 
ATOM     13  C   UNL     1      25.903  10.410  -9.576  1.00  0.00     0.009 A 
ATOM     14  C   UNL     1      27.579   8.716  -7.892  1.00  0.00     0.001 A 
ATOM     15  C   UNL     1      25.625   8.875  -9.465  1.00  0.00     0.001 A 
ATOM     16  C   UNL     1      26.405   8.099  -8.684  1.00  0.00     0.000 A 
ENDBRANCH  10  11
ENDBRANCH   2   5
ENDBRANCH   1   2
BRANCH   1  17
ATOM     17  O   UNL     1      26.999  18.383  -7.838  1.00  0.00    -0.281 OA
BRANCH  17  18
ATOM     18  C   UNL     1      26.212  18.128  -6.667  1.00  0.00     0.137 C 
ATOM     19  C   UNL     1      26.786  16.949  -5.866  1.00  0.00     0.040 C 
ATOM     20  C   UNL     1      26.152  19.363  -5.767  1.00  0.00     0.040 C 
ENDBRANCH  17  18
ENDBRANCH   1  17
BRANCH   1  21
ATOM     21  C   UNL     1      25.878  18.280  -9.773  1.00  0.00     0.200 C 
BRANCH  21  22
ATOM     22  C   UNL     1      25.231  19.610  -9.268  1.00  0.00     0.013 C 
ATOM     23  C   UNL     1      26.153  20.832  -9.409  1.00  0.00     0.010 C 
ATOM     24  C   UNL     1      23.963  19.933 -10.058  1.00  0.00     0.010 C 
ENDBRANCH  21  22
BRANCH  21  25
ATOM     25  C   UNL     1      24.724  17.261  -9.882  1.00  0.00     0.307 C 
ATOM     26  O   UNL     1      24.315  16.937 -10.949  1.00  0.00    -0.267 OA
BRANCH  25  27
ATOM     27  N   UNL     1      24.137  16.677  -8.697  1.00  0.00     0.010 NA
ATOM     28  O   UNL     1      24.445  15.582  -8.391  1.00  0.00    -0.142 OA
ENDBRANCH  25  27
ENDBRANCH  21  25
ENDBRANCH   1  21
TORSDOF 9
ENDMDL
MODEL 6
REMARK VINA RESULT:    -6.913      2.302      7.932
REMARK INTER + INTRA:         -11.604
REMARK INTER:                 -11.343
REMARK INTRA:                  -0.261
REMARK UNBOUND:                -1.054
REMARK SMILES CC(C)ON([C@@H](C(=O)N=O)C(C)C)S(=O)(=O)c1ccc(-c2ccccc2)cc1
REMARK SMILES IDX 5 1 14 2 15 3 16 4 17 5 18 6 28 7 19 8 27 9 20 10 21 11
REMARK SMILES IDX 22 12 26 13 23 14 25 15 24 16 4 17 2 18 1 19 3 20 6 21 11 22
REMARK SMILES IDX 12 23 13 24 7 25 8 26 9 27 10 28
REMARK H PARENT
ROOT
ATOM      1  N   UNL     1      27.125  16.327  -8.425  1.00  0.00    -0.064 NA
ENDROOT
BRANCH   1   2
ATOM      2  S   UNL     1      27.711  17.164  -9.504  1.00  0.00     0.265 S 
ATOM      3  O   UNL     1      27.931  16.343 -10.694  1.00  0.00    -0.205 OA
ATOM      4  O   UNL     1      28.947  17.844  -9.094  1.00  0.00    -0.205 OA
BRANCH   2   5
ATOM      5  C   UNL     1      26.418  18.437  -9.816  1.00  0.00     0.084 A 
ATOM      6  C   UNL     1      25.358  18.163 -10.737  1.00  0.00     0.022 A 
ATOM      7  C   UNL     1      26.508  19.708  -9.152  1.00  0.00     0.022 A 
ATOM      8  C   UNL     1      24.355  19.202 -10.986  1.00  0.00     0.010 A 
ATOM      9  C   UNL     1      25.508  20.745  -9.406  1.00  0.00     0.010 A 
ATOM     10  C   UNL     1      24.443  20.465 -10.314  1.00  0.00    -0.018 A 
BRANCH  10  11
ATOM     11  C   UNL     1      23.365  21.539 -10.604  1.00  0.00    -0.018 A 
ATOM     12  C   UNL     1      23.623  23.018 -10.272  1.00  0.00     0.009 A 
ATOM     13  C   UNL     1      22.148  21.139 -11.060  1.00  0.00     0.009 A 
ATOM     14  C   UNL     1      22.641  23.961 -10.507  1.00  0.00     0.001 A 
ATOM     15  C   UNL     1      21.038  22.208 -11.327  1.00  0.00     0.001 A 
ATOM     16  C   UNL     1      21.274  23.511 -11.069  1.00  0.00     0.000 A 
ENDBRANCH  10  11
ENDBRANCH   2   5
ENDBRANCH   1   2
BRANCH   1  17
ATOM     17  O   UNL     1      27.203  15.079  -8.636  1.00  0.00    -0.281 OA
BRANCH  17  18
ATOM     18  C   UNL     1      25.996  14.315  -8.765  1.00  0.00     0.137 C 
ATOM     19  C   UNL     1      25.137  14.838  -9.928  1.00  0.00     0.040 C 
ATOM     20  C   UNL     1      26.305  12.836  -8.998  1.00  0.00     0.040 C 
ENDBRANCH  17  18
ENDBRANCH   1  17
BRANCH   1  21
ATOM     21  C   UNL     1      27.389  16.724  -7.128  1.00  0.00     0.200 C 
BRANCH  21  22
ATOM     22  C   UNL     1      28.052  15.623  -6.239  1.00  0.00     0.013 C 
ATOM     23  C   UNL     1      29.584  15.582  -6.357  1.00  0.00     0.010 C 
ATOM     24  C   UNL     1      27.740  15.855  -4.761  1.00  0.00     0.010 C 
ENDBRANCH  21  22
BRANCH  21  25
ATOM     25  C   UNL     1      26.005  16.997  -6.502  1.00  0.00     0.307 C 
ATOM     26  O   UNL     1      25.074  16.320  -6.797  1.00  0.00    -0.267 OA
BRANCH  25  27
ATOM     27  N   UNL     1      25.823  18.062  -5.542  1.00  0.00     0.010 NA
ATOM     28  O   UNL     1      25.969  19.176  -5.894  1.00  0.00    -0.142 OA
ENDBRANCH  25  27
ENDBRANCH  21  25
ENDBRANCH   1  21
TORSDOF 9
ENDMDL
MODEL 7
REMARK VINA RESULT:    -6.799      3.643      4.552
REMARK INTER + INTRA:         -11.430
REMARK INTER:                 -10.107
REMARK INTRA:                  -1.323
REMARK UNBOUND:                -1.054
REMARK SMILES CC(C)ON([C@@H](C(=O)N=O)C(C)C)S(=O)(=O)c1ccc(-c2ccccc2)cc1
REMARK SMILES IDX 5 1 14 2 15 3 16 4 17 5 18 6 28 7 19 8 27 9 20 10 21 11
REMARK SMILES IDX 22 12 26 13 23 14 25 15 24 16 4 17 2 18 1 19 3 20 6 21 11 22
REMARK SMILES IDX 12 23 13 24 7 25 8 26 9 27 10 28
REMARK H PARENT
ROOT
ATOM      1  N   UNL     1      26.010  16.815 -10.338  1.00  0.00    -0.064 NA
ENDROOT
BRANCH   1   2
ATOM      2  S   UNL     1      24.998  15.809  -9.923  1.00  0.00     0.265 S 
ATOM      3  O   UNL     1      24.075  15.558 -11.029  1.00  0.00    -0.205 OA
ATOM      4  O   UNL     1      24.273  16.194  -8.705  1.00  0.00    -0.205 OA
BRANCH   2   5
ATOM      5  C   UNL     1      26.004  14.310  -9.556  1.00  0.00     0.084 A 
ATOM      6  C   UNL     1      25.895  13.158 -10.397  1.00  0.00     0.022 A 
ATOM      7  C   UNL     1      26.863  14.305  -8.406  1.00  0.00     0.022 A 
ATOM      8  C   UNL     1      26.686  11.969 -10.069  1.00  0.00     0.010 A 
ATOM      9  C   UNL     1      27.650  13.116  -8.078  1.00  0.00     0.010 A 
ATOM     10  C   UNL     1      27.552  11.972  -8.926  1.00  0.00    -0.018 A 
BRANCH  10  11
ATOM     11  C   UNL     1      28.372  10.696  -8.611  1.00  0.00    -0.018 A 
ATOM     12  C   UNL     1      29.570  10.298  -9.489  1.00  0.00     0.009 A 
ATOM     13  C   UNL     1      27.952   9.878  -7.609  1.00  0.00     0.009 A 
ATOM     14  C   UNL     1      30.274   9.142  -9.215  1.00  0.00     0.001 A 
ATOM     15  C   UNL     1      28.752   8.569  -7.299  1.00  0.00     0.001 A 
ATOM     16  C   UNL     1      29.824   8.236  -8.047  1.00  0.00     0.000 A 
ENDBRANCH  10  11
ENDBRANCH   2   5
ENDBRANCH   1   2
BRANCH   1  17
ATOM     17  O   UNL     1      26.194  16.880 -11.591  1.00  0.00    -0.281 OA
BRANCH  17  18
ATOM     18  C   UNL     1      27.303  16.181 -12.172  1.00  0.00     0.137 C 
ATOM     19  C   UNL     1      26.826  15.194 -13.249  1.00  0.00     0.040 C 
ATOM     20  C   UNL     1      28.301  17.158 -12.796  1.00  0.00     0.040 C 
ENDBRANCH  17  18
ENDBRANCH   1  17
BRANCH   1  21
ATOM     21  C   UNL     1      25.971  18.031  -9.684  1.00  0.00     0.200 C 
BRANCH  21  22
ATOM     22  C   UNL     1      26.197  19.270 -10.610  1.00  0.00     0.013 C 
ATOM     23  C   UNL     1      24.957  19.652 -11.434  1.00  0.00     0.010 C 
ATOM     24  C   UNL     1      26.567  20.504  -9.788  1.00  0.00     0.010 C 
ENDBRANCH  21  22
BRANCH  21  25
ATOM     25  C   UNL     1      27.170  18.004  -8.713  1.00  0.00     0.307 C 
ATOM     26  O   UNL     1      26.992  18.122  -7.544  1.00  0.00    -0.267 OA
BRANCH  25  27
ATOM     27  N   UNL     1      28.517  17.818  -9.203  1.00  0.00     0.010 NA
ATOM     28  O   UNL     1      29.242  17.098  -8.618  1.00  0.00    -0.142 OA
ENDBRANCH  25  27
ENDBRANCH  21  25
ENDBRANCH   1  21
TORSDOF 9
ENDMDL
MODEL 8
REMARK VINA RESULT:    -6.733      2.760      7.675
REMARK INTER + INTRA:         -11.330
REMARK INTER:                 -10.965
REMARK INTRA:                  -0.364
REMARK UNBOUND:                -1.054
REMARK SMILES CC(C)ON([C@@H](C(=O)N=O)C(C)C)S(=O)(=O)c1ccc(-c2ccccc2)cc1
REMARK SMILES IDX 5 1 14 2 15 3 16 4 17 5 18 6 28 7 19 8 27 9 20 10 21 11
REMARK SMILES IDX 22 12 26 13 23 14 25 15 24 16 4 17 2 18 1 19 3 20 6 21 11 22
REMARK SMILES IDX 12 23 13 24 7 25 8 26 9 27 10 28
REMARK H PARENT
ROOT
ATOM      1  N   UNL     1      26.456  16.280  -8.219  1.00  0.00    -0.064 NA
ENDROOT
BRANCH   1   2
ATOM      2  S   UNL     1      25.157  16.516  -8.902  1.00  0.00     0.265 S 
ATOM      3  O   UNL     1      24.060  16.171  -7.999  1.00  0.00    -0.205 OA
ATOM      4  O   UNL     1      25.040  15.794 -10.176  1.00  0.00    -0.205 OA
BRANCH   2   5
ATOM      5  C   UNL     1      25.175  18.324  -9.253  1.00  0.00     0.084 A 
ATOM      6  C   UNL     1      25.970  19.196  -8.445  1.00  0.00     0.022 A 
ATOM      7  C   UNL     1      24.360  18.841 -10.316  1.00  0.00     0.022 A 
ATOM      8  C   UNL     1      25.948  20.634  -8.728  1.00  0.00     0.010 A 
ATOM      9  C   UNL     1      24.336  20.278 -10.595  1.00  0.00     0.010 A 
ATOM     10  C   UNL     1      25.141  21.145  -9.798  1.00  0.00    -0.018 A 
BRANCH  10  11
ATOM     11  C   UNL     1      25.143  22.671 -10.066  1.00  0.00    -0.018 A 
ATOM     12  C   UNL     1      23.951  23.344 -10.768  1.00  0.00     0.009 A 
ATOM     13  C   UNL     1      26.258  23.388  -9.766  1.00  0.00     0.009 A 
ATOM     14  C   UNL     1      23.979  24.700 -11.029  1.00  0.00     0.001 A 
ATOM     15  C   UNL     1      26.288  24.924 -10.061  1.00  0.00     0.001 A 
ATOM     16  C   UNL     1      25.229  25.523 -10.645  1.00  0.00     0.000 A 
ENDBRANCH  10  11
ENDBRANCH   2   5
ENDBRANCH   1   2
BRANCH   1  17
ATOM     17  O   UNL     1      26.347  15.887  -7.019  1.00  0.00    -0.281 OA
BRANCH  17  18
ATOM     18  C   UNL     1      26.905  16.686  -5.967  1.00  0.00     0.137 C 
ATOM     19  C   UNL     1      25.831  17.585  -5.332  1.00  0.00     0.040 C 
ATOM     20  C   UNL     1      27.528  15.808  -4.882  1.00  0.00     0.040 C 
ENDBRANCH  17  18
ENDBRANCH   1  17
BRANCH   1  21
ATOM     21  C   UNL     1      27.434  15.646  -8.961  1.00  0.00     0.200 C 
BRANCH  21  22
ATOM     22  C   UNL     1      27.620  14.131  -8.624  1.00  0.00     0.013 C 
ATOM     23  C   UNL     1      26.306  13.334  -8.647  1.00  0.00     0.010 C 
ATOM     24  C   UNL     1      28.550  13.459  -9.633  1.00  0.00     0.010 C 
ENDBRANCH  21  22
BRANCH  21  25
ATOM     25  C   UNL     1      28.754  16.335  -8.557  1.00  0.00     0.307 C 
ATOM     26  O   UNL     1      28.948  17.470  -8.851  1.00  0.00    -0.267 OA
BRANCH  25  27
ATOM     27  N   UNL     1      29.762  15.623  -7.804  1.00  0.00     0.010 NA
ATOM     28  O   UNL     1      30.172  16.100  -6.809  1.00  0.00    -0.142 OA
ENDBRANCH  25  27
ENDBRANCH  21  25
ENDBRANCH   1  21
TORSDOF 9
ENDMDL
MODEL 9
REMARK VINA RESULT:    -6.319      3.600      5.476
REMARK INTER + INTRA:         -10.697
REMARK INTER:                  -9.660
REMARK INTRA:                  -1.038
REMARK UNBOUND:                -1.054
REMARK SMILES CC(C)ON([C@@H](C(=O)N=O)C(C)C)S(=O)(=O)c1ccc(-c2ccccc2)cc1
REMARK SMILES IDX 5 1 14 2 15 3 16 4 17 5 18 6 28 7 19 8 27 9 20 10 21 11
REMARK SMILES IDX 22 12 26 13 23 14 25 15 24 16 4 17 2 18 1 19 3 20 6 21 11 22
REMARK SMILES IDX 12 23 13 24 7 25 8 26 9 27 10 28
REMARK H PARENT
ROOT
ATOM      1  N   UNL     1      24.654  21.635 -11.317  1.00  0.00    -0.064 NA
ENDROOT
BRANCH   1   2
ATOM      2  S   UNL     1      23.795  20.436 -11.129  1.00  0.00     0.265 S 
ATOM      3  O   UNL     1      23.598  19.769 -12.415  1.00  0.00    -0.205 OA
ATOM      4  O   UNL     1      22.509  20.747 -10.491  1.00  0.00    -0.205 OA
BRANCH   2   5
ATOM      5  C   UNL     1      24.775  19.377  -9.984  1.00  0.00     0.084 A 
ATOM      6  C   UNL     1      25.541  19.982  -8.938  1.00  0.00     0.022 A 
ATOM      7  C   UNL     1      24.786  17.954 -10.178  1.00  0.00     0.022 A 
ATOM      8  C   UNL     1      26.333  19.120  -8.056  1.00  0.00     0.010 A 
ATOM      9  C   UNL     1      25.580  17.096  -9.298  1.00  0.00     0.010 A 
ATOM     10  C   UNL     1      26.332  17.699  -8.246  1.00  0.00    -0.018 A 
BRANCH  10  11
ATOM     11  C   UNL     1      27.182  16.820  -7.295  1.00  0.00    -0.018 A 
ATOM     12  C   UNL     1      26.770  16.633  -5.825  1.00  0.00     0.009 A 
ATOM     13  C   UNL     1      28.353  16.304  -7.752  1.00  0.00     0.009 A 
ATOM     14  C   UNL     1      27.554  15.872  -4.979  1.00  0.00     0.001 A 
ATOM     15  C   UNL     1      29.239  15.441  -6.793  1.00  0.00     0.001 A 
ATOM     16  C   UNL     1      28.862  15.247  -5.513  1.00  0.00     0.000 A 
ENDBRANCH  10  11
ENDBRANCH   2   5
ENDBRANCH   1   2
BRANCH   1  17
ATOM     17  O   UNL     1      25.263  21.667 -12.429  1.00  0.00    -0.281 OA
BRANCH  17  18
ATOM     18  C   UNL     1      26.658  21.338 -12.472  1.00  0.00     0.137 C 
ATOM     19  C   UNL     1      26.895  20.056 -13.287  1.00  0.00     0.040 C 
ATOM     20  C   UNL     1      27.472  22.478 -13.086  1.00  0.00     0.040 C 
ENDBRANCH  17  18
ENDBRANCH   1  17
BRANCH   1  21
ATOM     21  C   UNL     1      24.126  22.841 -10.899  1.00  0.00     0.200 C 
BRANCH  21  22
ATOM     22  C   UNL     1      24.120  23.957 -11.992  1.00  0.00     0.013 C 
ATOM     23  C   UNL     1      23.149  23.674 -13.150  1.00  0.00     0.010 C 
ATOM     24  C   UNL     1      23.702  25.301 -11.396  1.00  0.00     0.010 C 
ENDBRANCH  21  22
BRANCH  21  25
ATOM     25  C   UNL     1      25.083  23.335  -9.793  1.00  0.00     0.307 C 
ATOM     26  O   UNL     1      24.822  23.144  -8.650  1.00  0.00    -0.267 OA
BRANCH  25  27
ATOM     27  N   UNL     1      26.312  24.020 -10.128  1.00  0.00     0.010 NA
ATOM     28  O   UNL     1      26.669  24.913  -9.448  1.00  0.00    -0.142 OA
ENDBRANCH  25  27
ENDBRANCH  21  25
ENDBRANCH   1  21
TORSDOF 9
ENDMDL
