MODEL 1
REMARK VINA RESULT:    -8.150      0.000      0.000
REMARK INTER + INTRA:         -12.082
REMARK INTER:                 -11.485
REMARK INTRA:                  -0.597
REMARK UNBOUND:                -0.597
REMARK SMILES CO[C@H]1OC(OC(=O)c2cc(O)c(O)c(O)c2)[C@H](O)[C@@H](O)[C@@H]1O
REMARK SMILES IDX 7 1 8 2 6 3 5 4 3 5 22 6 4 7 20 8 18 9 2 10 1 11 23 12 21 14
REMARK SMILES IDX 19 16 9 18 17 19 10 20 15 21 11 22 13 23 16 24 12 26 14 28
REMARK H PARENT 23 13 21 15 19 17 16 25 12 27 14 29
ROOT
ATOM      1  C   UNL     1      16.915  31.884  53.151  1.00  0.00     0.340 C 
ATOM      2  O   UNL     1      16.146  32.155  52.243  1.00  0.00    -0.246 OA
ENDROOT
BRANCH   1   3
ATOM      3  O   UNL     1      17.191  32.645  54.235  1.00  0.00    -0.429 OA
BRANCH   3   4
ATOM      4  C   UNL     1      17.962  33.831  53.985  1.00  0.00     0.345 C 
ATOM      5  C   UNL     1      16.185  35.244  54.713  1.00  0.00     0.285 C 
ATOM      6  C   UNL     1      16.954  35.669  55.976  1.00  0.00     0.202 C 
ATOM      7  O   UNL     1      17.083  34.921  53.657  1.00  0.00    -0.308 OA
ATOM      8  C   UNL     1      17.920  34.565  56.390  1.00  0.00     0.183 C 
ATOM      9  C   UNL     1      18.822  34.186  55.216  1.00  0.00     0.215 C 
BRANCH   5  10
ATOM     10  O   UNL     1      15.356  36.360  54.351  1.00  0.00    -0.353 OA
ATOM     11  C   UNL     1      13.976  36.014  54.351  1.00  0.00     0.198 C 
ENDBRANCH   5  10
BRANCH   6  12
ATOM     12  O   UNL     1      16.064  35.942  57.071  1.00  0.00    -0.385 OA
ATOM     13  H   UNL     1      16.477  36.684  57.557  1.00  0.00     0.211 HD
ENDBRANCH   6  12
BRANCH   8  14
ATOM     14  O   UNL     1      18.738  35.007  57.487  1.00  0.00    -0.387 OA
ATOM     15  H   UNL     1      18.313  34.634  58.287  1.00  0.00     0.211 HD
ENDBRANCH   8  14
BRANCH   9  16
ATOM     16  O   UNL     1      19.678  33.110  55.616  1.00  0.00    -0.384 OA
ATOM     17  H   UNL     1      19.333  32.817  56.484  1.00  0.00     0.211 HD
ENDBRANCH   9  16
ENDBRANCH   3   4
ENDBRANCH   1   3
BRANCH   1  18
ATOM     18  C   UNL     1      17.689  30.615  53.198  1.00  0.00     0.067 A 
ATOM     19  C   UNL     1      17.112  29.521  53.870  1.00  0.00     0.066 A 
ATOM     20  C   UNL     1      18.956  30.487  52.605  1.00  0.00     0.066 A 
ATOM     21  C   UNL     1      17.802  28.316  53.940  1.00  0.00     0.162 A 
ATOM     22  C   UNL     1      19.626  29.274  52.690  1.00  0.00     0.162 A 
ATOM     23  C   UNL     1      19.056  28.194  53.352  1.00  0.00     0.200 A 
BRANCH  21  24
ATOM     24  O   UNL     1      17.290  27.221  54.577  1.00  0.00    -0.504 OA
ATOM     25  H   UNL     1      16.562  27.515  55.156  1.00  0.00     0.293 HD
ENDBRANCH  21  24
BRANCH  22  26
ATOM     26  O   UNL     1      20.858  29.150  52.116  1.00  0.00    -0.504 OA
ATOM     27  H   UNL     1      20.678  28.823  51.211  1.00  0.00     0.293 HD
ENDBRANCH  22  26
BRANCH  23  28
ATOM     28  O   UNL     1      19.744  27.014  53.416  1.00  0.00    -0.502 OA
ATOM     29  H   UNL     1      20.119  27.001  54.321  1.00  0.00     0.293 HD
ENDBRANCH  23  28
ENDBRANCH   1  18
TORSDOF 10
ENDMDL
MODEL 2
REMARK VINA RESULT:    -8.083      0.138      1.731
REMARK INTER + INTRA:         -11.989
REMARK INTER:                 -11.403
REMARK INTRA:                  -0.586
REMARK UNBOUND:                -0.597
REMARK SMILES CO[C@H]1OC(OC(=O)c2cc(O)c(O)c(O)c2)[C@H](O)[C@@H](O)[C@@H]1O
REMARK SMILES IDX 7 1 8 2 6 3 5 4 3 5 22 6 4 7 20 8 18 9 2 10 1 11 23 12 21 14
REMARK SMILES IDX 19 16 9 18 17 19 10 20 15 21 11 22 13 23 16 24 12 26 14 28
REMARK H PARENT 23 13 21 15 19 17 16 25 12 27 14 29
ROOT
ATOM      1  C   UNL     1      16.967  31.887  53.061  1.00  0.00     0.340 C 
ATOM      2  O   UNL     1      16.315  32.180  52.072  1.00  0.00    -0.246 OA
ENDROOT
BRANCH   1   3
ATOM      3  O   UNL     1      17.171  32.656  54.155  1.00  0.00    -0.429 OA
BRANCH   3   4
ATOM      4  C   UNL     1      17.888  33.881  53.931  1.00  0.00     0.345 C 
ATOM      5  C   UNL     1      16.047  35.196  54.683  1.00  0.00     0.285 C 
ATOM      6  C   UNL     1      16.793  35.629  55.957  1.00  0.00     0.202 C 
ATOM      7  O   UNL     1      16.962  34.936  53.623  1.00  0.00    -0.308 OA
ATOM      8  C   UNL     1      17.806  34.562  56.351  1.00  0.00     0.183 C 
ATOM      9  C   UNL     1      18.728  34.248  55.173  1.00  0.00     0.215 C 
BRANCH   5  10
ATOM     10  O   UNL     1      15.169  36.281  54.341  1.00  0.00    -0.353 OA
ATOM     11  C   UNL     1      13.806  35.875  54.336  1.00  0.00     0.198 C 
ENDBRANCH   5  10
BRANCH   6  12
ATOM     12  O   UNL     1      15.888  35.839  57.053  1.00  0.00    -0.385 OA
ATOM     13  H   UNL     1      16.072  36.749  57.366  1.00  0.00     0.211 HD
ENDBRANCH   6  12
BRANCH   8  14
ATOM     14  O   UNL     1      18.602  35.018  57.460  1.00  0.00    -0.387 OA
ATOM     15  H   UNL     1      19.368  34.408  57.489  1.00  0.00     0.211 HD
ENDBRANCH   8  14
BRANCH   9  16
ATOM     16  O   UNL     1      19.631  33.204  55.554  1.00  0.00    -0.384 OA
ATOM     17  H   UNL     1      20.469  33.659  55.775  1.00  0.00     0.211 HD
ENDBRANCH   9  16
ENDBRANCH   3   4
ENDBRANCH   1   3
BRANCH   1  18
ATOM     18  C   UNL     1      17.656  30.577  53.212  1.00  0.00     0.067 A 
ATOM     19  C   UNL     1      18.937  30.443  52.647  1.00  0.00     0.066 A 
ATOM     20  C   UNL     1      17.068  29.495  53.886  1.00  0.00     0.066 A 
ATOM     21  C   UNL     1      19.616  29.235  52.763  1.00  0.00     0.162 A 
ATOM     22  C   UNL     1      17.764  28.298  53.988  1.00  0.00     0.162 A 
ATOM     23  C   UNL     1      19.030  28.166  53.432  1.00  0.00     0.200 A 
BRANCH  21  24
ATOM     24  O   UNL     1      20.864  29.048  52.236  1.00  0.00    -0.504 OA
ATOM     25  H   UNL     1      21.380  29.864  52.374  1.00  0.00     0.293 HD
ENDBRANCH  21  24
BRANCH  22  26
ATOM     26  O   UNL     1      17.192  27.246  54.641  1.00  0.00    -0.504 OA
ATOM     27  H   UNL     1      17.493  26.454  54.149  1.00  0.00     0.293 HD
ENDBRANCH  22  26
BRANCH  23  28
ATOM     28  O   UNL     1      19.688  26.973  53.551  1.00  0.00    -0.502 OA
ATOM     29  H   UNL     1      20.447  27.173  54.138  1.00  0.00     0.293 HD
ENDBRANCH  23  28
ENDBRANCH   1  18
TORSDOF 10
ENDMDL
MODEL 3
REMARK VINA RESULT:    -7.676      1.438      2.319
REMARK INTER + INTRA:         -11.415
REMARK INTER:                 -10.733
REMARK INTRA:                  -0.682
REMARK UNBOUND:                -0.597
REMARK SMILES CO[C@H]1OC(OC(=O)c2cc(O)c(O)c(O)c2)[C@H](O)[C@@H](O)[C@@H]1O
REMARK SMILES IDX 7 1 8 2 6 3 5 4 3 5 22 6 4 7 20 8 18 9 2 10 1 11 23 12 21 14
REMARK SMILES IDX 19 16 9 18 17 19 10 20 15 21 11 22 13 23 16 24 12 26 14 28
REMARK H PARENT 23 13 21 15 19 17 16 25 12 27 14 29
ROOT
ATOM      1  C   UNL     1      16.655  31.836  52.952  1.00  0.00     0.340 C 
ATOM      2  O   UNL     1      15.729  31.817  52.157  1.00  0.00    -0.246 OA
ENDROOT
BRANCH   1   3
ATOM      3  O   UNL     1      17.048  32.884  53.714  1.00  0.00    -0.429 OA
BRANCH   3   4
ATOM      4  C   UNL     1      16.080  33.932  53.879  1.00  0.00     0.345 C 
ATOM      5  C   UNL     1      17.183  34.761  55.824  1.00  0.00     0.285 C 
ATOM      6  C   UNL     1      17.639  36.040  55.100  1.00  0.00     0.202 C 
ATOM      7  O   UNL     1      15.966  34.272  55.271  1.00  0.00    -0.308 OA
ATOM      8  C   UNL     1      17.779  35.767  53.607  1.00  0.00     0.183 C 
ATOM      9  C   UNL     1      16.483  35.174  53.055  1.00  0.00     0.215 C 
BRANCH   5  10
ATOM     10  O   UNL     1      17.006  35.119  57.204  1.00  0.00    -0.353 OA
ATOM     11  C   UNL     1      15.664  35.500  57.482  1.00  0.00     0.198 C 
ENDBRANCH   5  10
BRANCH   6  12
ATOM     12  O   UNL     1      18.897  36.514  55.606  1.00  0.00    -0.385 OA
ATOM     13  H   UNL     1      18.849  37.489  55.538  1.00  0.00     0.211 HD
ENDBRANCH   6  12
BRANCH   8  14
ATOM     14  O   UNL     1      18.072  36.988  52.905  1.00  0.00    -0.387 OA
ATOM     15  H   UNL     1      17.392  37.045  52.203  1.00  0.00     0.211 HD
ENDBRANCH   8  14
BRANCH   9  16
ATOM     16  O   UNL     1      16.663  34.876  51.666  1.00  0.00    -0.384 OA
ATOM     17  H   UNL     1      16.645  33.900  51.609  1.00  0.00     0.211 HD
ENDBRANCH   9  16
ENDBRANCH   3   4
ENDBRANCH   1   3
BRANCH   1  18
ATOM     18  C   UNL     1      17.516  30.653  53.215  1.00  0.00     0.067 A 
ATOM     19  C   UNL     1      17.052  29.698  54.139  1.00  0.00     0.066 A 
ATOM     20  C   UNL     1      18.755  30.473  52.580  1.00  0.00     0.066 A 
ATOM     21  C   UNL     1      17.827  28.577  54.416  1.00  0.00     0.162 A 
ATOM     22  C   UNL     1      19.512  29.346  52.873  1.00  0.00     0.162 A 
ATOM     23  C   UNL     1      19.053  28.403  53.784  1.00  0.00     0.200 A 
BRANCH  21  24
ATOM     24  O   UNL     1      17.426  27.617  55.301  1.00  0.00    -0.504 OA
ATOM     25  H   UNL     1      17.816  26.765  55.030  1.00  0.00     0.293 HD
ENDBRANCH  21  24
BRANCH  22  26
ATOM     26  O   UNL     1      20.717  29.172  52.258  1.00  0.00    -0.504 OA
ATOM     27  H   UNL     1      20.510  29.170  51.301  1.00  0.00     0.293 HD
ENDBRANCH  22  26
BRANCH  23  28
ATOM     28  O   UNL     1      19.824  27.304  54.050  1.00  0.00    -0.502 OA
ATOM     29  H   UNL     1      19.201  26.550  53.988  1.00  0.00     0.293 HD
ENDBRANCH  23  28
ENDBRANCH   1  18
TORSDOF 10
ENDMDL
MODEL 4
REMARK VINA RESULT:    -7.595      1.621      3.345
REMARK INTER + INTRA:         -11.300
REMARK INTER:                 -10.651
REMARK INTRA:                  -0.649
REMARK UNBOUND:                -0.597
REMARK SMILES CO[C@H]1OC(OC(=O)c2cc(O)c(O)c(O)c2)[C@H](O)[C@@H](O)[C@@H]1O
REMARK SMILES IDX 7 1 8 2 6 3 5 4 3 5 22 6 4 7 20 8 18 9 2 10 1 11 23 12 21 14
REMARK SMILES IDX 19 16 9 18 17 19 10 20 15 21 11 22 13 23 16 24 12 26 14 28
REMARK H PARENT 23 13 21 15 19 17 16 25 12 27 14 29
ROOT
ATOM      1  C   UNL     1      17.358  30.599  55.265  1.00  0.00     0.340 C 
ATOM      2  O   UNL     1      16.771  30.319  56.297  1.00  0.00    -0.246 OA
ENDROOT
BRANCH   1   3
ATOM      3  O   UNL     1      17.507  31.831  54.724  1.00  0.00    -0.429 OA
BRANCH   3   4
ATOM      4  C   UNL     1      16.504  32.794  55.083  1.00  0.00     0.345 C 
ATOM      5  C   UNL     1      18.147  34.450  55.575  1.00  0.00     0.285 C 
ATOM      6  C   UNL     1      17.749  35.300  54.356  1.00  0.00     0.202 C 
ATOM      7  O   UNL     1      17.034  33.706  56.060  1.00  0.00    -0.308 OA
ATOM      8  C   UNL     1      17.167  34.405  53.269  1.00  0.00     0.183 C 
ATOM      9  C   UNL     1      16.023  33.564  53.834  1.00  0.00     0.215 C 
BRANCH   5  10
ATOM     10  O   UNL     1      18.615  35.370  56.574  1.00  0.00    -0.353 OA
ATOM     11  C   UNL     1      17.572  36.217  57.041  1.00  0.00     0.198 C 
ENDBRANCH   5  10
BRANCH   6  12
ATOM     12  O   UNL     1      18.875  36.012  53.819  1.00  0.00    -0.385 OA
ATOM     13  H   UNL     1      18.767  36.934  54.131  1.00  0.00     0.211 HD
ENDBRANCH   6  12
BRANCH   8  14
ATOM     14  O   UNL     1      16.669  35.205  52.182  1.00  0.00    -0.387 OA
ATOM     15  H   UNL     1      17.170  34.904  51.396  1.00  0.00     0.211 HD
ENDBRANCH   8  14
BRANCH   9  16
ATOM     16  O   UNL     1      15.534  32.694  52.807  1.00  0.00    -0.384 OA
ATOM     17  H   UNL     1      16.333  32.292  52.411  1.00  0.00     0.211 HD
ENDBRANCH   9  16
ENDBRANCH   3   4
ENDBRANCH   1   3
BRANCH   1  18
ATOM     18  C   UNL     1      18.031  29.577  54.419  1.00  0.00     0.067 A 
ATOM     19  C   UNL     1      19.182  29.969  53.711  1.00  0.00     0.066 A 
ATOM     20  C   UNL     1      17.552  28.262  54.309  1.00  0.00     0.066 A 
ATOM     21  C   UNL     1      19.842  29.047  52.906  1.00  0.00     0.162 A 
ATOM     22  C   UNL     1      18.227  27.358  53.499  1.00  0.00     0.162 A 
ATOM     23  C   UNL     1      19.364  27.745  52.802  1.00  0.00     0.200 A 
BRANCH  21  24
ATOM     24  O   UNL     1      20.965  29.371  52.199  1.00  0.00    -0.504 OA
ATOM     25  H   UNL     1      21.336  28.553  51.819  1.00  0.00     0.293 HD
ENDBRANCH  21  24
BRANCH  22  26
ATOM     26  O   UNL     1      17.761  26.081  53.390  1.00  0.00    -0.504 OA
ATOM     27  H   UNL     1      18.081  25.772  52.518  1.00  0.00     0.293 HD
ENDBRANCH  22  26
BRANCH  23  28
ATOM     28  O   UNL     1      20.004  26.829  52.012  1.00  0.00    -0.502 OA
ATOM     29  H   UNL     1      19.368  26.646  51.290  1.00  0.00     0.293 HD
ENDBRANCH  23  28
ENDBRANCH   1  18
TORSDOF 10
ENDMDL
MODEL 5
REMARK VINA RESULT:    -7.535      1.889      2.887
REMARK INTER + INTRA:         -11.215
REMARK INTER:                 -10.468
REMARK INTRA:                  -0.748
REMARK UNBOUND:                -0.597
REMARK SMILES CO[C@H]1OC(OC(=O)c2cc(O)c(O)c(O)c2)[C@H](O)[C@@H](O)[C@@H]1O
REMARK SMILES IDX 7 1 8 2 6 3 5 4 3 5 22 6 4 7 20 8 18 9 2 10 1 11 23 12 21 14
REMARK SMILES IDX 19 16 9 18 17 19 10 20 15 21 11 22 13 23 16 24 12 26 14 28
REMARK H PARENT 23 13 21 15 19 17 16 25 12 27 14 29
ROOT
ATOM      1  C   UNL     1      17.144  33.129  53.228  1.00  0.00     0.340 C 
ATOM      2  O   UNL     1      16.640  33.280  52.127  1.00  0.00    -0.246 OA
ENDROOT
BRANCH   1   3
ATOM      3  O   UNL     1      17.518  34.103  54.090  1.00  0.00    -0.429 OA
BRANCH   3   4
ATOM      4  C   UNL     1      16.588  35.186  54.249  1.00  0.00     0.345 C 
ATOM      5  C   UNL     1      16.976  35.289  56.599  1.00  0.00     0.285 C 
ATOM      6  C   UNL     1      17.696  36.644  56.486  1.00  0.00     0.202 C 
ATOM      7  O   UNL     1      16.010  35.141  55.564  1.00  0.00    -0.308 OA
ATOM      8  C   UNL     1      18.336  36.777  55.109  1.00  0.00     0.183 C 
ATOM      9  C   UNL     1      17.292  36.540  54.017  1.00  0.00     0.215 C 
BRANCH   5  10
ATOM     10  O   UNL     1      16.345  35.274  57.888  1.00  0.00    -0.353 OA
ATOM     11  C   UNL     1      14.932  35.406  57.786  1.00  0.00     0.198 C 
ENDBRANCH   5  10
BRANCH   6  12
ATOM     12  O   UNL     1      18.716  36.786  57.488  1.00  0.00    -0.385 OA
ATOM     13  H   UNL     1      18.363  36.328  58.278  1.00  0.00     0.211 HD
ENDBRANCH   6  12
BRANCH   8  14
ATOM     14  O   UNL     1      18.894  38.093  54.946  1.00  0.00    -0.387 OA
ATOM     15  H   UNL     1      19.857  37.948  54.841  1.00  0.00     0.211 HD
ENDBRANCH   8  14
BRANCH   9  16
ATOM     16  O   UNL     1      17.932  36.615  52.738  1.00  0.00    -0.384 OA
ATOM     17  H   UNL     1      17.204  36.725  52.094  1.00  0.00     0.211 HD
ENDBRANCH   9  16
ENDBRANCH   3   4
ENDBRANCH   1   3
BRANCH   1  18
ATOM     18  C   UNL     1      17.423  31.788  53.809  1.00  0.00     0.067 A 
ATOM     19  C   UNL     1      17.607  30.715  52.917  1.00  0.00     0.066 A 
ATOM     20  C   UNL     1      17.502  31.573  55.194  1.00  0.00     0.066 A 
ATOM     21  C   UNL     1      17.868  29.444  53.417  1.00  0.00     0.162 A 
ATOM     22  C   UNL     1      17.763  30.294  55.669  1.00  0.00     0.162 A 
ATOM     23  C   UNL     1      17.946  29.236  54.789  1.00  0.00     0.200 A 
BRANCH  21  24
ATOM     24  O   UNL     1      18.058  28.366  52.599  1.00  0.00    -0.504 OA
ATOM     25  H   UNL     1      19.017  28.227  52.490  1.00  0.00     0.293 HD
ENDBRANCH  21  24
BRANCH  22  26
ATOM     26  O   UNL     1      17.837  30.085  57.016  1.00  0.00    -0.504 OA
ATOM     27  H   UNL     1      17.365  29.240  57.162  1.00  0.00     0.293 HD
ENDBRANCH  22  26
BRANCH  23  28
ATOM     28  O   UNL     1      18.201  27.989  55.292  1.00  0.00    -0.502 OA
ATOM     29  H   UNL     1      18.506  27.473  54.517  1.00  0.00     0.293 HD
ENDBRANCH  23  28
ENDBRANCH   1  18
TORSDOF 10
ENDMDL
MODEL 6
REMARK VINA RESULT:    -7.375      3.770      7.061
REMARK INTER + INTRA:         -10.990
REMARK INTER:                 -10.248
REMARK INTRA:                  -0.742
REMARK UNBOUND:                -0.597
REMARK SMILES CO[C@H]1OC(OC(=O)c2cc(O)c(O)c(O)c2)[C@H](O)[C@@H](O)[C@@H]1O
REMARK SMILES IDX 7 1 8 2 6 3 5 4 3 5 22 6 4 7 20 8 18 9 2 10 1 11 23 12 21 14
REMARK SMILES IDX 19 16 9 18 17 19 10 20 15 21 11 22 13 23 16 24 12 26 14 28
REMARK H PARENT 23 13 21 15 19 17 16 25 12 27 14 29
ROOT
ATOM      1  C   UNL     1      14.178  34.217  54.452  1.00  0.00     0.340 C 
ATOM      2  O   UNL     1      13.924  33.324  53.660  1.00  0.00    -0.246 OA
ENDROOT
BRANCH   1   3
ATOM      3  O   UNL     1      15.266  34.308  55.251  1.00  0.00    -0.429 OA
BRANCH   3   4
ATOM      4  C   UNL     1      16.536  34.208  54.588  1.00  0.00     0.345 C 
ATOM      5  C   UNL     1      16.975  36.531  54.894  1.00  0.00     0.285 C 
ATOM      6  C   UNL     1      18.097  36.252  55.910  1.00  0.00     0.202 C 
ATOM      7  O   UNL     1      16.857  35.461  53.963  1.00  0.00    -0.308 OA
ATOM      8  C   UNL     1      17.836  34.928  56.618  1.00  0.00     0.183 C 
ATOM      9  C   UNL     1      17.639  33.811  55.593  1.00  0.00     0.215 C 
BRANCH   5  10
ATOM     10  O   UNL     1      17.332  37.751  54.224  1.00  0.00    -0.353 OA
ATOM     11  C   UNL     1      18.536  37.611  53.480  1.00  0.00     0.198 C 
ENDBRANCH   5  10
BRANCH   6  12
ATOM     12  O   UNL     1      18.191  37.295  56.894  1.00  0.00    -0.385 OA
ATOM     13  H   UNL     1      17.570  37.988  56.591  1.00  0.00     0.211 HD
ENDBRANCH   6  12
BRANCH   8  14
ATOM     14  O   UNL     1      18.946  34.593  57.469  1.00  0.00    -0.387 OA
ATOM     15  H   UNL     1      19.742  34.751  56.920  1.00  0.00     0.211 HD
ENDBRANCH   8  14
BRANCH   9  16
ATOM     16  O   UNL     1      17.340  32.593  56.285  1.00  0.00    -0.384 OA
ATOM     17  H   UNL     1      16.936  32.872  57.131  1.00  0.00     0.211 HD
ENDBRANCH   9  16
ENDBRANCH   3   4
ENDBRANCH   1   3
BRANCH   1  18
ATOM     18  C   UNL     1      13.287  35.392  54.653  1.00  0.00     0.067 A 
ATOM     19  C   UNL     1      12.190  35.240  55.519  1.00  0.00     0.066 A 
ATOM     20  C   UNL     1      13.510  36.619  54.008  1.00  0.00     0.066 A 
ATOM     21  C   UNL     1      11.330  36.312  55.735  1.00  0.00     0.162 A 
ATOM     22  C   UNL     1      12.637  37.675  54.237  1.00  0.00     0.162 A 
ATOM     23  C   UNL     1      11.555  37.525  55.094  1.00  0.00     0.200 A 
BRANCH  21  24
ATOM     24  O   UNL     1      10.251  36.222  56.567  1.00  0.00    -0.504 OA
ATOM     25  H   UNL     1      10.474  36.660  57.409  1.00  0.00     0.293 HD
ENDBRANCH  21  24
BRANCH  22  26
ATOM     26  O   UNL     1      12.852  38.867  53.610  1.00  0.00    -0.504 OA
ATOM     27  H   UNL     1      13.564  39.296  54.128  1.00  0.00     0.293 HD
ENDBRANCH  22  26
BRANCH  23  28
ATOM     28  O   UNL     1      10.715  38.586  55.298  1.00  0.00    -0.502 OA
ATOM     29  H   UNL     1      11.310  39.318  55.563  1.00  0.00     0.293 HD
ENDBRANCH  23  28
ENDBRANCH   1  18
TORSDOF 10
ENDMDL
MODEL 7
REMARK VINA RESULT:    -7.060      1.909      6.744
REMARK INTER + INTRA:         -10.547
REMARK INTER:                  -9.912
REMARK INTRA:                  -0.635
REMARK UNBOUND:                -0.597
REMARK SMILES CO[C@H]1OC(OC(=O)c2cc(O)c(O)c(O)c2)[C@H](O)[C@@H](O)[C@@H]1O
REMARK SMILES IDX 7 1 8 2 6 3 5 4 3 5 22 6 4 7 20 8 18 9 2 10 1 11 23 12 21 14
REMARK SMILES IDX 19 16 9 18 17 19 10 20 15 21 11 22 13 23 16 24 12 26 14 28
REMARK H PARENT 23 13 21 15 19 17 16 25 12 27 14 29
ROOT
ATOM      1  C   UNL     1      17.081  32.866  53.188  1.00  0.00     0.340 C 
ATOM      2  O   UNL     1      16.513  33.017  52.118  1.00  0.00    -0.246 OA
ENDROOT
BRANCH   1   3
ATOM      3  O   UNL     1      17.439  31.692  53.758  1.00  0.00    -0.429 OA
BRANCH   3   4
ATOM      4  C   UNL     1      16.387  30.725  53.907  1.00  0.00     0.345 C 
ATOM      5  C   UNL     1      17.808  28.945  53.203  1.00  0.00     0.285 C 
ATOM      6  C   UNL     1      17.836  28.324  54.611  1.00  0.00     0.202 C 
ATOM      7  O   UNL     1      16.588  29.644  52.981  1.00  0.00    -0.308 OA
ATOM      8  C   UNL     1      17.622  29.409  55.659  1.00  0.00     0.183 C 
ATOM      9  C   UNL     1      16.345  30.192  55.355  1.00  0.00     0.215 C 
BRANCH   5  10
ATOM     10  O   UNL     1      17.943  27.854  52.278  1.00  0.00    -0.353 OA
ATOM     11  C   UNL     1      16.773  27.046  52.242  1.00  0.00     0.198 C 
ENDBRANCH   5  10
BRANCH   6  12
ATOM     12  O   UNL     1      19.085  27.664  54.873  1.00  0.00    -0.385 OA
ATOM     13  H   UNL     1      18.951  27.191  55.719  1.00  0.00     0.211 HD
ENDBRANCH   6  12
BRANCH   8  14
ATOM     14  O   UNL     1      17.511  28.821  56.967  1.00  0.00    -0.387 OA
ATOM     15  H   UNL     1      16.556  28.631  57.078  1.00  0.00     0.211 HD
ENDBRANCH   8  14
BRANCH   9  16
ATOM     16  O   UNL     1      16.200  31.239  56.322  1.00  0.00    -0.384 OA
ATOM     17  H   UNL     1      15.350  31.671  56.105  1.00  0.00     0.211 HD
ENDBRANCH   9  16
ENDBRANCH   3   4
ENDBRANCH   1   3
BRANCH   1  18
ATOM     18  C   UNL     1      17.486  34.007  54.052  1.00  0.00     0.067 A 
ATOM     19  C   UNL     1      17.470  35.295  53.485  1.00  0.00     0.066 A 
ATOM     20  C   UNL     1      17.880  33.832  55.388  1.00  0.00     0.066 A 
ATOM     21  C   UNL     1      17.843  36.390  54.257  1.00  0.00     0.162 A 
ATOM     22  C   UNL     1      18.250  34.940  56.139  1.00  0.00     0.162 A 
ATOM     23  C   UNL     1      18.232  36.211  55.580  1.00  0.00     0.200 A 
BRANCH  21  24
ATOM     24  O   UNL     1      17.844  37.663  53.760  1.00  0.00    -0.504 OA
ATOM     25  H   UNL     1      17.340  37.668  52.926  1.00  0.00     0.293 HD
ENDBRANCH  21  24
BRANCH  22  26
ATOM     26  O   UNL     1      18.635  34.770  57.437  1.00  0.00    -0.504 OA
ATOM     27  H   UNL     1      19.466  34.255  57.383  1.00  0.00     0.293 HD
ENDBRANCH  22  26
BRANCH  23  28
ATOM     28  O   UNL     1      18.603  37.281  56.348  1.00  0.00    -0.502 OA
ATOM     29  H   UNL     1      19.108  36.885  57.088  1.00  0.00     0.293 HD
ENDBRANCH  23  28
ENDBRANCH   1  18
TORSDOF 10
ENDMDL
MODEL 8
REMARK VINA RESULT:    -7.019      1.302      3.173
REMARK INTER + INTRA:         -10.488
REMARK INTER:                  -9.882
REMARK INTRA:                  -0.606
REMARK UNBOUND:                -0.597
REMARK SMILES CO[C@H]1OC(OC(=O)c2cc(O)c(O)c(O)c2)[C@H](O)[C@@H](O)[C@@H]1O
REMARK SMILES IDX 7 1 8 2 6 3 5 4 3 5 22 6 4 7 20 8 18 9 2 10 1 11 23 12 21 14
REMARK SMILES IDX 19 16 9 18 17 19 10 20 15 21 11 22 13 23 16 24 12 26 14 28
REMARK H PARENT 23 13 21 15 19 17 16 25 12 27 14 29
ROOT
ATOM      1  C   UNL     1      16.390  31.832  52.931  1.00  0.00     0.340 C 
ATOM      2  O   UNL     1      15.389  31.713  52.243  1.00  0.00    -0.246 OA
ENDROOT
BRANCH   1   3
ATOM      3  O   UNL     1      16.840  32.965  53.519  1.00  0.00    -0.429 OA
BRANCH   3   4
ATOM      4  C   UNL     1      16.254  33.282  54.791  1.00  0.00     0.345 C 
ATOM      5  C   UNL     1      17.724  35.133  55.103  1.00  0.00     0.285 C 
ATOM      6  C   UNL     1      16.583  36.151  54.936  1.00  0.00     0.202 C 
ATOM      7  O   UNL     1      17.236  33.906  55.635  1.00  0.00    -0.308 OA
ATOM      8  C   UNL     1      15.489  35.562  54.053  1.00  0.00     0.183 C 
ATOM      9  C   UNL     1      15.035  34.211  54.606  1.00  0.00     0.215 C 
BRANCH   5  10
ATOM     10  O   UNL     1      18.672  35.734  55.999  1.00  0.00    -0.353 OA
ATOM     11  C   UNL     1      18.128  35.912  57.301  1.00  0.00     0.198 C 
ENDBRANCH   5  10
BRANCH   6  12
ATOM     12  O   UNL     1      17.048  37.375  54.344  1.00  0.00    -0.385 OA
ATOM     13  H   UNL     1      16.585  38.087  54.832  1.00  0.00     0.211 HD
ENDBRANCH   6  12
BRANCH   8  14
ATOM     14  O   UNL     1      14.359  36.451  54.003  1.00  0.00    -0.387 OA
ATOM     15  H   UNL     1      14.672  37.229  53.497  1.00  0.00     0.211 HD
ENDBRANCH   8  14
BRANCH   9  16
ATOM     16  O   UNL     1      14.050  33.656  53.728  1.00  0.00    -0.384 OA
ATOM     17  H   UNL     1      14.289  33.982  52.837  1.00  0.00     0.211 HD
ENDBRANCH   9  16
ENDBRANCH   3   4
ENDBRANCH   1   3
BRANCH   1  18
ATOM     18  C   UNL     1      17.294  30.692  53.241  1.00  0.00     0.067 A 
ATOM     19  C   UNL     1      18.525  30.629  52.562  1.00  0.00     0.066 A 
ATOM     20  C   UNL     1      16.953  29.697  54.172  1.00  0.00     0.066 A 
ATOM     21  C   UNL     1      19.399  29.580  52.821  1.00  0.00     0.162 A 
ATOM     22  C   UNL     1      17.842  28.658  54.412  1.00  0.00     0.162 A 
ATOM     23  C   UNL     1      19.057  28.597  53.743  1.00  0.00     0.200 A 
BRANCH  21  24
ATOM     24  O   UNL     1      20.608  29.470  52.193  1.00  0.00    -0.504 OA
ATOM     25  H   UNL     1      21.218  28.989  52.782  1.00  0.00     0.293 HD
ENDBRANCH  21  24
BRANCH  22  26
ATOM     26  O   UNL     1      17.509  27.690  55.314  1.00  0.00    -0.504 OA
ATOM     27  H   UNL     1      18.074  26.925  55.078  1.00  0.00     0.293 HD
ENDBRANCH  22  26
BRANCH  23  28
ATOM     28  O   UNL     1      19.909  27.559  54.004  1.00  0.00    -0.502 OA
ATOM     29  H   UNL     1      20.379  27.831  54.820  1.00  0.00     0.293 HD
ENDBRANCH  23  28
ENDBRANCH   1  18
TORSDOF 10
ENDMDL
MODEL 9
REMARK VINA RESULT:    -6.942      1.950      6.626
REMARK INTER + INTRA:         -10.381
REMARK INTER:                  -9.671
REMARK INTRA:                  -0.710
REMARK UNBOUND:                -0.597
REMARK SMILES CO[C@H]1OC(OC(=O)c2cc(O)c(O)c(O)c2)[C@H](O)[C@@H](O)[C@@H]1O
REMARK SMILES IDX 7 1 8 2 6 3 5 4 3 5 22 6 4 7 20 8 18 9 2 10 1 11 23 12 21 14
REMARK SMILES IDX 19 16 9 18 17 19 10 20 15 21 11 22 13 23 16 24 12 26 14 28
REMARK H PARENT 23 13 21 15 19 17 16 25 12 27 14 29
ROOT
ATOM      1  C   UNL     1      16.772  32.573  53.319  1.00  0.00     0.340 C 
ATOM      2  O   UNL     1      16.077  32.620  52.317  1.00  0.00    -0.246 OA
ENDROOT
BRANCH   1   3
ATOM      3  O   UNL     1      17.194  31.459  53.961  1.00  0.00    -0.429 OA
BRANCH   3   4
ATOM      4  C   UNL     1      16.218  30.415  54.108  1.00  0.00     0.345 C 
ATOM      5  C   UNL     1      17.729  28.767  53.282  1.00  0.00     0.285 C 
ATOM      6  C   UNL     1      17.854  28.096  54.661  1.00  0.00     0.202 C 
ATOM      7  O   UNL     1      16.457  29.387  53.132  1.00  0.00    -0.308 OA
ATOM      8  C   UNL     1      17.606  29.123  55.759  1.00  0.00     0.183 C 
ATOM      9  C   UNL     1      16.268  29.826  55.533  1.00  0.00     0.215 C 
BRANCH   5  10
ATOM     10  O   UNL     1      17.903  27.725  52.309  1.00  0.00    -0.353 OA
ATOM     11  C   UNL     1      16.757  26.887  52.222  1.00  0.00     0.198 C 
ENDBRANCH   5  10
BRANCH   6  12
ATOM     12  O   UNL     1      19.154  27.516  54.851  1.00  0.00    -0.385 OA
ATOM     13  H   UNL     1      19.381  27.698  55.786  1.00  0.00     0.211 HD
ENDBRANCH   6  12
BRANCH   8  14
ATOM     14  O   UNL     1      17.586  28.478  57.045  1.00  0.00    -0.387 OA
ATOM     15  H   UNL     1      17.669  29.207  57.695  1.00  0.00     0.211 HD
ENDBRANCH   8  14
BRANCH   9  16
ATOM     16  O   UNL     1      16.089  30.822  56.546  1.00  0.00    -0.384 OA
ATOM     17  H   UNL     1      16.597  31.598  56.235  1.00  0.00     0.211 HD
ENDBRANCH   9  16
ENDBRANCH   3   4
ENDBRANCH   1   3
BRANCH   1  18
ATOM     18  C   UNL     1      17.283  33.791  54.004  1.00  0.00     0.067 A 
ATOM     19  C   UNL     1      17.628  33.681  55.363  1.00  0.00     0.066 A 
ATOM     20  C   UNL     1      17.420  35.020  53.340  1.00  0.00     0.066 A 
ATOM     21  C   UNL     1      18.107  34.795  56.043  1.00  0.00     0.162 A 
ATOM     22  C   UNL     1      17.900  36.120  54.040  1.00  0.00     0.162 A 
ATOM     23  C   UNL     1      18.242  36.011  55.381  1.00  0.00     0.200 A 
BRANCH  21  24
ATOM     24  O   UNL     1      18.461  34.746  57.362  1.00  0.00    -0.504 OA
ATOM     25  H   UNL     1      18.531  35.659  57.696  1.00  0.00     0.293 HD
ENDBRANCH  21  24
BRANCH  22  26
ATOM     26  O   UNL     1      18.031  37.316  53.396  1.00  0.00    -0.504 OA
ATOM     27  H   UNL     1      18.753  37.172  52.750  1.00  0.00     0.293 HD
ENDBRANCH  22  26
BRANCH  23  28
ATOM     28  O   UNL     1      18.712  37.114  56.040  1.00  0.00    -0.502 OA
ATOM     29  H   UNL     1      19.557  37.324  55.590  1.00  0.00     0.293 HD
ENDBRANCH  23  28
ENDBRANCH   1  18
TORSDOF 10
ENDMDL
