MODEL 1
REMARK VINA RESULT:    -7.672      0.000      0.000
REMARK INTER + INTRA:         -11.560
REMARK INTER:                 -11.036
REMARK INTRA:                  -0.524
REMARK UNBOUND:                -0.524
REMARK SMILES O=C([O-])C1=CO[C@@H](O[C@@H]2O[C@H](CO)[C@@H](O)[C@H](O)[C@H]2O)[C@@H]2[C@@H](CO)CC[C@H]12
REMARK SMILES IDX 8 1 7 2 24 3 25 4 21 5 26 6 20 7 4 8 5 9 6 10 22 11 23 12
REMARK SMILES IDX 2 14 1 15 3 16 9 17 18 18 10 19 16 20 11 21 14 22 19 23
REMARK SMILES IDX 17 25 12 27 13 28 15 30
REMARK H PARENT 23 13 19 24 17 26 13 29 15 31
ROOT
ATOM      1  O   UNL     1      18.043  33.402  53.282  1.00  0.00    -0.310 OA
ENDROOT
BRANCH   1   2
ATOM      2  C   UNL     1      16.820  34.003  53.735  1.00  0.00     0.313 C 
ATOM      3  C   UNL     1      16.431  35.728  57.095  1.00  0.00     0.007 C 
ATOM      4  C   UNL     1      17.709  36.362  56.552  1.00  0.00     0.009 C 
ATOM      5  C   UNL     1      15.799  35.040  55.889  1.00  0.00     0.024 C 
ATOM      6  C   UNL     1      18.057  35.619  55.244  1.00  0.00     0.034 C 
ATOM      7  C   UNL     1      17.035  34.461  55.178  1.00  0.00     0.071 C 
ATOM      8  C   UNL     1      17.959  36.504  54.029  1.00  0.00     0.013 C 
ATOM      9  C   UNL     1      17.154  36.213  52.998  1.00  0.00     0.196 C 
ATOM     10  O   UNL     1      16.398  35.075  52.878  1.00  0.00    -0.472 OA
BRANCH   5  11
ATOM     11  C   UNL     1      14.760  34.004  56.295  1.00  0.00     0.160 C 
BRANCH  11  12
ATOM     12  O   UNL     1      14.494  34.069  57.690  1.00  0.00    -0.396 OA
ATOM     13  H   UNL     1      14.927  34.873  58.029  1.00  0.00     0.210 HD
ENDBRANCH  11  12
ENDBRANCH   5  11
BRANCH   8  14
ATOM     14  C   UNL     1      18.819  37.782  53.968  1.00  0.00     0.071 C 
ATOM     15  O   UNL     1      18.316  38.809  54.504  1.00  0.00    -0.545 OA
ATOM     16  O   UNL     1      19.929  37.642  53.379  1.00  0.00    -0.545 OA
ENDBRANCH   8  14
ENDBRANCH   1   2
BRANCH   1  17
ATOM     17  C   UNL     1      18.027  31.984  53.394  1.00  0.00     0.286 C 
ATOM     18  C   UNL     1      18.252  31.671  54.884  1.00  0.00     0.202 C 
ATOM     19  O   UNL     1      16.760  31.482  52.958  1.00  0.00    -0.341 OA
ATOM     20  C   UNL     1      18.132  30.169  55.116  1.00  0.00     0.179 C 
ATOM     21  C   UNL     1      16.661  30.052  53.099  1.00  0.00     0.178 C 
ATOM     22  C   UNL     1      16.805  29.642  54.569  1.00  0.00     0.177 C 
BRANCH  18  23
ATOM     23  O   UNL     1      19.548  32.088  55.339  1.00  0.00    -0.385 OA
ATOM     24  H   UNL     1      19.394  32.823  55.973  1.00  0.00     0.211 HD
ENDBRANCH  18  23
BRANCH  20  25
ATOM     25  O   UNL     1      18.213  29.868  56.520  1.00  0.00    -0.387 OA
ATOM     26  H   UNL     1      19.171  29.937  56.725  1.00  0.00     0.211 HD
ENDBRANCH  20  25
BRANCH  21  27
ATOM     27  C   UNL     1      15.299  29.632  52.535  1.00  0.00     0.191 C 
BRANCH  27  28
ATOM     28  O   UNL     1      15.405  28.343  51.926  1.00  0.00    -0.394 OA
ATOM     29  H   UNL     1      14.519  28.154  51.557  1.00  0.00     0.210 HD
ENDBRANCH  27  28
ENDBRANCH  21  27
BRANCH  22  30
ATOM     30  O   UNL     1      16.766  28.221  54.723  1.00  0.00    -0.387 OA
ATOM     31  H   UNL     1      17.418  27.881  54.075  1.00  0.00     0.211 HD
ENDBRANCH  22  30
ENDBRANCH   1  17
TORSDOF 10
ENDMDL
MODEL 2
REMARK VINA RESULT:    -7.418      2.039      2.985
REMARK INTER + INTRA:         -11.194
REMARK INTER:                 -10.410
REMARK INTRA:                  -0.784
REMARK UNBOUND:                -0.524
REMARK SMILES O=C([O-])C1=CO[C@@H](O[C@@H]2O[C@H](CO)[C@@H](O)[C@H](O)[C@H]2O)[C@@H]2[C@@H](CO)CC[C@H]12
REMARK SMILES IDX 8 1 7 2 24 3 25 4 21 5 26 6 20 7 4 8 5 9 6 10 22 11 23 12
REMARK SMILES IDX 2 14 1 15 3 16 9 17 18 18 10 19 16 20 11 21 14 22 19 23
REMARK SMILES IDX 17 25 12 27 13 28 15 30
REMARK H PARENT 23 13 19 24 17 26 13 29 15 31
ROOT
ATOM      1  O   UNL     1      17.994  32.029  55.413  1.00  0.00    -0.310 OA
ENDROOT
BRANCH   1   2
ATOM      2  C   UNL     1      16.976  32.371  54.461  1.00  0.00     0.313 C 
ATOM      3  C   UNL     1      13.886  34.408  55.312  1.00  0.00     0.007 C 
ATOM      4  C   UNL     1      15.006  35.251  55.917  1.00  0.00     0.009 C 
ATOM      5  C   UNL     1      14.600  33.423  54.391  1.00  0.00     0.024 C 
ATOM      6  C   UNL     1      16.310  34.438  55.768  1.00  0.00     0.034 C 
ATOM      7  C   UNL     1      15.846  33.069  55.221  1.00  0.00     0.071 C 
ATOM      8  C   UNL     1      17.299  35.090  54.838  1.00  0.00     0.013 C 
ATOM      9  C   UNL     1      17.771  34.469  53.749  1.00  0.00     0.196 C 
ATOM     10  O   UNL     1      17.490  33.176  53.388  1.00  0.00    -0.472 OA
BRANCH   5  11
ATOM     11  C   UNL     1      13.721  32.234  54.028  1.00  0.00     0.160 C 
BRANCH  11  12
ATOM     12  O   UNL     1      13.749  31.988  52.628  1.00  0.00    -0.396 OA
ATOM     13  H   UNL     1      14.353  32.642  52.233  1.00  0.00     0.210 HD
ENDBRANCH  11  12
ENDBRANCH   5  11
BRANCH   8  14
ATOM     14  C   UNL     1      17.788  36.518  55.155  1.00  0.00     0.071 C 
ATOM     15  O   UNL     1      17.368  37.426  54.385  1.00  0.00    -0.545 OA
ATOM     16  O   UNL     1      18.561  36.600  56.152  1.00  0.00    -0.545 OA
ENDBRANCH   8  14
ENDBRANCH   1   2
BRANCH   1  17
ATOM     17  C   UNL     1      18.451  30.690  55.263  1.00  0.00     0.286 C 
ATOM     18  C   UNL     1      17.256  29.789  55.625  1.00  0.00     0.202 C 
ATOM     19  O   UNL     1      18.859  30.469  53.910  1.00  0.00    -0.341 OA
ATOM     20  C   UNL     1      17.622  28.330  55.379  1.00  0.00     0.179 C 
ATOM     21  C   UNL     1      19.281  29.112  53.681  1.00  0.00     0.178 C 
ATOM     22  C   UNL     1      18.131  28.134  53.951  1.00  0.00     0.177 C 
BRANCH  18  23
ATOM     23  O   UNL     1      16.869  29.924  57.001  1.00  0.00    -0.385 OA
ATOM     24  H   UNL     1      16.558  30.849  57.110  1.00  0.00     0.211 HD
ENDBRANCH  18  23
BRANCH  20  25
ATOM     25  O   UNL     1      16.479  27.482  55.590  1.00  0.00    -0.387 OA
ATOM     26  H   UNL     1      15.981  27.535  54.746  1.00  0.00     0.211 HD
ENDBRANCH  20  25
BRANCH  21  27
ATOM     27  C   UNL     1      19.758  29.021  52.227  1.00  0.00     0.191 C 
BRANCH  27  28
ATOM     28  O   UNL     1      21.179  29.175  52.174  1.00  0.00    -0.394 OA
ATOM     29  H   UNL     1      21.373  29.986  52.686  1.00  0.00     0.210 HD
ENDBRANCH  27  28
ENDBRANCH  21  27
BRANCH  22  30
ATOM     30  O   UNL     1      18.547  26.776  53.783  1.00  0.00    -0.387 OA
ATOM     31  H   UNL     1      19.192  26.802  53.046  1.00  0.00     0.211 HD
ENDBRANCH  22  30
ENDBRANCH   1  17
TORSDOF 10
ENDMDL
MODEL 3
REMARK VINA RESULT:    -7.373      9.792     13.097
REMARK INTER + INTRA:         -11.130
REMARK INTER:                 -10.240
REMARK INTRA:                  -0.890
REMARK UNBOUND:                -0.524
REMARK SMILES O=C([O-])C1=CO[C@@H](O[C@@H]2O[C@H](CO)[C@@H](O)[C@H](O)[C@H]2O)[C@@H]2[C@@H](CO)CC[C@H]12
REMARK SMILES IDX 8 1 7 2 24 3 25 4 21 5 26 6 20 7 4 8 5 9 6 10 22 11 23 12
REMARK SMILES IDX 2 14 1 15 3 16 9 17 18 18 10 19 16 20 11 21 14 22 19 23
REMARK SMILES IDX 17 25 12 27 13 28 15 30
REMARK H PARENT 23 13 19 24 17 26 13 29 15 31
ROOT
ATOM      1  O   UNL     1       6.715  39.168  56.995  1.00  0.00    -0.310 OA
ENDROOT
BRANCH   1   2
ATOM      2  C   UNL     1       5.421  38.851  56.459  1.00  0.00     0.313 C 
ATOM      3  C   UNL     1       3.622  35.566  57.082  1.00  0.00     0.007 C 
ATOM      4  C   UNL     1       4.042  35.977  58.492  1.00  0.00     0.009 C 
ATOM      5  C   UNL     1       3.806  36.825  56.243  1.00  0.00     0.024 C 
ATOM      6  C   UNL     1       4.926  37.234  58.347  1.00  0.00     0.034 C 
ATOM      7  C   UNL     1       5.113  37.397  56.821  1.00  0.00     0.071 C 
ATOM      8  C   UNL     1       4.297  38.461  58.953  1.00  0.00     0.013 C 
ATOM      9  C   UNL     1       4.057  39.568  58.238  1.00  0.00     0.196 C 
ATOM     10  O   UNL     1       4.410  39.757  56.926  1.00  0.00    -0.472 OA
BRANCH   5  11
ATOM     11  C   UNL     1       3.855  36.522  54.751  1.00  0.00     0.160 C 
BRANCH  11  12
ATOM     12  O   UNL     1       3.293  37.587  53.996  1.00  0.00    -0.396 OA
ATOM     13  H   UNL     1       3.814  38.387  54.194  1.00  0.00     0.210 HD
ENDBRANCH  11  12
ENDBRANCH   5  11
BRANCH   8  14
ATOM     14  C   UNL     1       3.923  38.442  60.449  1.00  0.00     0.071 C 
ATOM     15  O   UNL     1       4.682  37.764  61.197  1.00  0.00    -0.545 OA
ATOM     16  O   UNL     1       2.891  39.111  60.742  1.00  0.00    -0.545 OA
ENDBRANCH   8  14
ENDBRANCH   1   2
BRANCH   1  17
ATOM     17  C   UNL     1       7.773  38.585  56.242  1.00  0.00     0.286 C 
ATOM     18  C   UNL     1       8.470  39.749  55.516  1.00  0.00     0.202 C 
ATOM     19  O   UNL     1       8.683  37.922  57.124  1.00  0.00    -0.341 OA
ATOM     20  C   UNL     1       9.696  39.229  54.773  1.00  0.00     0.179 C 
ATOM     21  C   UNL     1       9.808  37.358  56.426  1.00  0.00     0.178 C 
ATOM     22  C   UNL     1      10.613  38.455  55.720  1.00  0.00     0.177 C 
BRANCH  18  23
ATOM     23  O   UNL     1       7.611  40.389  54.560  1.00  0.00    -0.385 OA
ATOM     24  H   UNL     1       6.692  40.254  54.882  1.00  0.00     0.211 HD
ENDBRANCH  18  23
BRANCH  20  25
ATOM     25  O   UNL     1      10.433  40.318  54.192  1.00  0.00    -0.387 OA
ATOM     26  H   UNL     1       9.854  40.642  53.469  1.00  0.00     0.211 HD
ENDBRANCH  20  25
BRANCH  21  27
ATOM     27  C   UNL     1      10.664  36.619  57.461  1.00  0.00     0.191 C 
BRANCH  27  28
ATOM     28  O   UNL     1      11.813  37.405  57.788  1.00  0.00    -0.394 OA
ATOM     29  H   UNL     1      11.740  37.587  58.747  1.00  0.00     0.210 HD
ENDBRANCH  27  28
ENDBRANCH  21  27
BRANCH  22  30
ATOM     30  O   UNL     1      11.704  37.907  54.974  1.00  0.00    -0.387 OA
ATOM     31  H   UNL     1      12.294  37.511  55.648  1.00  0.00     0.211 HD
ENDBRANCH  22  30
ENDBRANCH   1  17
TORSDOF 10
ENDMDL
MODEL 4
REMARK VINA RESULT:    -7.355      1.026      1.225
REMARK INTER + INTRA:         -11.104
REMARK INTER:                 -10.166
REMARK INTRA:                  -0.938
REMARK UNBOUND:                -0.524
REMARK SMILES O=C([O-])C1=CO[C@@H](O[C@@H]2O[C@H](CO)[C@@H](O)[C@H](O)[C@H]2O)[C@@H]2[C@@H](CO)CC[C@H]12
REMARK SMILES IDX 8 1 7 2 24 3 25 4 21 5 26 6 20 7 4 8 5 9 6 10 22 11 23 12
REMARK SMILES IDX 2 14 1 15 3 16 9 17 18 18 10 19 16 20 11 21 14 22 19 23
REMARK SMILES IDX 17 25 12 27 13 28 15 30
REMARK H PARENT 23 13 19 24 17 26 13 29 15 31
ROOT
ATOM      1  O   UNL     1      17.941  32.631  53.739  1.00  0.00    -0.310 OA
ENDROOT
BRANCH   1   2
ATOM      2  C   UNL     1      16.632  33.200  53.895  1.00  0.00     0.313 C 
ATOM      3  C   UNL     1      15.571  35.267  56.898  1.00  0.00     0.007 C 
ATOM      4  C   UNL     1      16.899  35.915  56.513  1.00  0.00     0.009 C 
ATOM      5  C   UNL     1      15.197  34.409  55.694  1.00  0.00     0.024 C 
ATOM      6  C   UNL     1      17.508  35.052  55.387  1.00  0.00     0.034 C 
ATOM      7  C   UNL     1      16.564  33.832  55.286  1.00  0.00     0.071 C 
ATOM      8  C   UNL     1      17.594  35.785  54.074  1.00  0.00     0.013 C 
ATOM      9  C   UNL     1      17.001  35.330  52.962  1.00  0.00     0.196 C 
ATOM     10  O   UNL     1      16.327  34.140  52.853  1.00  0.00    -0.472 OA
BRANCH   5  11
ATOM     11  C   UNL     1      14.146  33.362  56.037  1.00  0.00     0.160 C 
BRANCH  11  12
ATOM     12  O   UNL     1      14.730  32.256  56.714  1.00  0.00    -0.396 OA
ATOM     13  H   UNL     1      14.018  31.815  57.212  1.00  0.00     0.210 HD
ENDBRANCH  11  12
ENDBRANCH   5  11
BRANCH   8  14
ATOM     14  C   UNL     1      18.396  37.100  54.007  1.00  0.00     0.071 C 
ATOM     15  O   UNL     1      19.601  36.991  53.644  1.00  0.00    -0.545 OA
ATOM     16  O   UNL     1      17.743  38.133  54.333  1.00  0.00    -0.545 OA
ENDBRANCH   8  14
ENDBRANCH   1   2
BRANCH   1  17
ATOM     17  C   UNL     1      17.901  31.223  53.540  1.00  0.00     0.286 C 
ATOM     18  C   UNL     1      18.126  30.590  54.925  1.00  0.00     0.202 C 
ATOM     19  O   UNL     1      16.625  30.847  53.014  1.00  0.00    -0.341 OA
ATOM     20  C   UNL     1      17.983  29.075  54.826  1.00  0.00     0.179 C 
ATOM     21  C   UNL     1      16.502  29.423  52.842  1.00  0.00     0.178 C 
ATOM     22  C   UNL     1      16.645  28.700  54.186  1.00  0.00     0.177 C 
BRANCH  18  23
ATOM     23  O   UNL     1      19.431  30.877  55.450  1.00  0.00    -0.385 OA
ATOM     24  H   UNL     1      19.933  30.033  55.419  1.00  0.00     0.211 HD
ENDBRANCH  18  23
BRANCH  20  25
ATOM     25  O   UNL     1      18.064  28.475  56.130  1.00  0.00    -0.387 OA
ATOM     26  H   UNL     1      18.613  27.673  55.992  1.00  0.00     0.211 HD
ENDBRANCH  20  25
BRANCH  21  27
ATOM     27  C   UNL     1      15.132  29.156  52.210  1.00  0.00     0.191 C 
BRANCH  27  28
ATOM     28  O   UNL     1      14.192  28.797  53.226  1.00  0.00    -0.394 OA
ATOM     29  H   UNL     1      14.325  29.445  53.947  1.00  0.00     0.210 HD
ENDBRANCH  27  28
ENDBRANCH  21  27
BRANCH  22  30
ATOM     30  O   UNL     1      16.582  27.280  54.028  1.00  0.00    -0.387 OA
ATOM     31  H   UNL     1      17.113  26.923  54.771  1.00  0.00     0.211 HD
ENDBRANCH  22  30
ENDBRANCH   1  17
TORSDOF 10
ENDMDL
MODEL 5
REMARK VINA RESULT:    -7.329      1.965      6.707
REMARK INTER + INTRA:         -11.066
REMARK INTER:                 -10.078
REMARK INTRA:                  -0.988
REMARK UNBOUND:                -0.524
REMARK SMILES O=C([O-])C1=CO[C@@H](O[C@@H]2O[C@H](CO)[C@@H](O)[C@H](O)[C@H]2O)[C@@H]2[C@@H](CO)CC[C@H]12
REMARK SMILES IDX 8 1 7 2 24 3 25 4 21 5 26 6 20 7 4 8 5 9 6 10 22 11 23 12
REMARK SMILES IDX 2 14 1 15 3 16 9 17 18 18 10 19 16 20 11 21 14 22 19 23
REMARK SMILES IDX 17 25 12 27 13 28 15 30
REMARK H PARENT 23 13 19 24 17 26 13 29 15 31
ROOT
ATOM      1  O   UNL     1      17.370  33.396  54.497  1.00  0.00    -0.310 OA
ENDROOT
BRANCH   1   2
ATOM      2  C   UNL     1      16.158  32.679  54.776  1.00  0.00     0.313 C 
ATOM      3  C   UNL     1      14.616  30.137  52.413  1.00  0.00     0.007 C 
ATOM      4  C   UNL     1      16.074  29.686  52.467  1.00  0.00     0.009 C 
ATOM      5  C   UNL     1      14.468  31.103  53.584  1.00  0.00     0.024 C 
ATOM      6  C   UNL     1      16.841  30.748  53.284  1.00  0.00     0.034 C 
ATOM      7  C   UNL     1      15.803  31.866  53.529  1.00  0.00     0.071 C 
ATOM      8  C   UNL     1      17.377  30.206  54.583  1.00  0.00     0.013 C 
ATOM      9  C   UNL     1      17.050  30.740  55.767  1.00  0.00     0.196 C 
ATOM     10  O   UNL     1      16.276  31.857  55.948  1.00  0.00    -0.472 OA
BRANCH   5  11
ATOM     11  C   UNL     1      13.231  31.981  53.455  1.00  0.00     0.160 C 
BRANCH  11  12
ATOM     12  O   UNL     1      12.624  31.821  52.179  1.00  0.00    -0.396 OA
ATOM     13  H   UNL     1      11.737  31.446  52.327  1.00  0.00     0.210 HD
ENDBRANCH  11  12
ENDBRANCH   5  11
BRANCH   8  14
ATOM     14  C   UNL     1      18.339  29.001  54.546  1.00  0.00     0.071 C 
ATOM     15  O   UNL     1      17.988  27.997  55.226  1.00  0.00    -0.545 OA
ATOM     16  O   UNL     1      19.371  29.173  53.837  1.00  0.00    -0.545 OA
ENDBRANCH   8  14
ENDBRANCH   1   2
BRANCH   1  17
ATOM     17  C   UNL     1      17.266  34.781  54.808  1.00  0.00     0.286 C 
ATOM     18  C   UNL     1      17.958  34.965  56.171  1.00  0.00     0.202 C 
ATOM     19  O   UNL     1      17.924  35.551  53.799  1.00  0.00    -0.341 OA
ATOM     20  C   UNL     1      17.997  36.446  56.529  1.00  0.00     0.179 C 
ATOM     21  C   UNL     1      17.902  36.962  54.085  1.00  0.00     0.178 C 
ATOM     22  C   UNL     1      18.632  37.259  55.400  1.00  0.00     0.177 C 
BRANCH  18  23
ATOM     23  O   UNL     1      17.276  34.271  57.226  1.00  0.00    -0.385 OA
ATOM     24  H   UNL     1      16.500  33.833  56.812  1.00  0.00     0.211 HD
ENDBRANCH  18  23
BRANCH  20  25
ATOM     25  O   UNL     1      18.750  36.652  57.737  1.00  0.00    -0.387 OA
ATOM     26  H   UNL     1      19.592  37.054  57.430  1.00  0.00     0.211 HD
ENDBRANCH  20  25
BRANCH  21  27
ATOM     27  C   UNL     1      18.568  37.678  52.905  1.00  0.00     0.191 C 
BRANCH  27  28
ATOM     28  O   UNL     1      19.872  38.126  53.285  1.00  0.00    -0.394 OA
ATOM     29  H   UNL     1      20.069  37.672  54.129  1.00  0.00     0.210 HD
ENDBRANCH  27  28
ENDBRANCH  21  27
BRANCH  22  30
ATOM     30  O   UNL     1      18.572  38.649  55.731  1.00  0.00    -0.387 OA
ATOM     31  H   UNL     1      19.136  39.089  55.062  1.00  0.00     0.211 HD
ENDBRANCH  22  30
ENDBRANCH   1  17
TORSDOF 10
ENDMDL
MODEL 6
REMARK VINA RESULT:    -7.315      1.466      1.805
REMARK INTER + INTRA:         -11.047
REMARK INTER:                 -10.003
REMARK INTRA:                  -1.044
REMARK UNBOUND:                -0.524
REMARK SMILES O=C([O-])C1=CO[C@@H](O[C@@H]2O[C@H](CO)[C@@H](O)[C@H](O)[C@H]2O)[C@@H]2[C@@H](CO)CC[C@H]12
REMARK SMILES IDX 8 1 7 2 24 3 25 4 21 5 26 6 20 7 4 8 5 9 6 10 22 11 23 12
REMARK SMILES IDX 2 14 1 15 3 16 9 17 18 18 10 19 16 20 11 21 14 22 19 23
REMARK SMILES IDX 17 25 12 27 13 28 15 30
REMARK H PARENT 23 13 19 24 17 26 13 29 15 31
ROOT
ATOM      1  O   UNL     1      17.463  32.752  53.575  1.00  0.00    -0.310 OA
ENDROOT
BRANCH   1   2
ATOM      2  C   UNL     1      16.283  33.482  53.944  1.00  0.00     0.313 C 
ATOM      3  C   UNL     1      15.974  35.528  57.128  1.00  0.00     0.007 C 
ATOM      4  C   UNL     1      17.307  36.012  56.561  1.00  0.00     0.009 C 
ATOM      5  C   UNL     1      15.311  34.785  55.973  1.00  0.00     0.024 C 
ATOM      6  C   UNL     1      17.617  35.129  55.333  1.00  0.00     0.034 C 
ATOM      7  C   UNL     1      16.510  34.052  55.346  1.00  0.00     0.071 C 
ATOM      8  C   UNL     1      17.608  35.906  54.041  1.00  0.00     0.013 C 
ATOM      9  C   UNL     1      16.800  35.585  53.022  1.00  0.00     0.196 C 
ATOM     10  O   UNL     1      15.960  34.502  52.986  1.00  0.00    -0.472 OA
BRANCH   5  11
ATOM     11  C   UNL     1      14.188  33.872  56.445  1.00  0.00     0.160 C 
BRANCH  11  12
ATOM     12  O   UNL     1      14.683  32.577  56.764  1.00  0.00    -0.396 OA
ATOM     13  H   UNL     1      14.357  31.967  56.078  1.00  0.00     0.210 HD
ENDBRANCH  11  12
ENDBRANCH   5  11
BRANCH   8  14
ATOM     14  C   UNL     1      18.566  37.104  53.887  1.00  0.00     0.071 C 
ATOM     15  O   UNL     1      18.047  38.245  54.043  1.00  0.00    -0.545 OA
ATOM     16  O   UNL     1      19.760  36.792  53.617  1.00  0.00    -0.545 OA
ENDBRANCH   8  14
ENDBRANCH   1   2
BRANCH   1  17
ATOM     17  C   UNL     1      17.251  31.345  53.567  1.00  0.00     0.286 C 
ATOM     18  C   UNL     1      18.643  30.704  53.713  1.00  0.00     0.202 C 
ATOM     19  O   UNL     1      16.409  30.978  54.663  1.00  0.00    -0.341 OA
ATOM     20  C   UNL     1      18.500  29.191  53.831  1.00  0.00     0.179 C 
ATOM     21  C   UNL     1      16.201  29.556  54.742  1.00  0.00     0.178 C 
ATOM     22  C   UNL     1      17.532  28.826  54.957  1.00  0.00     0.177 C 
BRANCH  18  23
ATOM     23  O   UNL     1      19.492  30.983  52.589  1.00  0.00    -0.385 OA
ATOM     24  H   UNL     1      19.430  30.201  51.996  1.00  0.00     0.211 HD
ENDBRANCH  18  23
BRANCH  20  25
ATOM     25  O   UNL     1      19.777  28.584  54.095  1.00  0.00    -0.387 OA
ATOM     26  H   UNL     1      19.699  28.252  55.015  1.00  0.00     0.211 HD
ENDBRANCH  20  25
BRANCH  21  27
ATOM     27  C   UNL     1      15.232  29.299  55.901  1.00  0.00     0.191 C 
BRANCH  27  28
ATOM     28  O   UNL     1      15.799  29.784  57.121  1.00  0.00    -0.394 OA
ATOM     29  H   UNL     1      16.752  29.905  56.937  1.00  0.00     0.210 HD
ENDBRANCH  27  28
ENDBRANCH  21  27
BRANCH  22  30
ATOM     30  O   UNL     1      17.354  27.407  54.982  1.00  0.00    -0.387 OA
ATOM     31  H   UNL     1      18.119  27.069  55.493  1.00  0.00     0.211 HD
ENDBRANCH  22  30
ENDBRANCH   1  17
TORSDOF 10
ENDMDL
MODEL 7
REMARK VINA RESULT:    -7.281      1.995      4.054
REMARK INTER + INTRA:         -10.997
REMARK INTER:                 -10.062
REMARK INTRA:                  -0.935
REMARK UNBOUND:                -0.524
REMARK SMILES O=C([O-])C1=CO[C@@H](O[C@@H]2O[C@H](CO)[C@@H](O)[C@H](O)[C@H]2O)[C@@H]2[C@@H](CO)CC[C@H]12
REMARK SMILES IDX 8 1 7 2 24 3 25 4 21 5 26 6 20 7 4 8 5 9 6 10 22 11 23 12
REMARK SMILES IDX 2 14 1 15 3 16 9 17 18 18 10 19 16 20 11 21 14 22 19 23
REMARK SMILES IDX 17 25 12 27 13 28 15 30
REMARK H PARENT 23 13 19 24 17 26 13 29 15 31
ROOT
ATOM      1  O   UNL     1      17.250  32.323  54.087  1.00  0.00    -0.310 OA
ENDROOT
BRANCH   1   2
ATOM      2  C   UNL     1      17.769  33.533  54.660  1.00  0.00     0.313 C 
ATOM      3  C   UNL     1      17.011  37.002  53.314  1.00  0.00     0.007 C 
ATOM      4  C   UNL     1      15.620  36.378  53.399  1.00  0.00     0.009 C 
ATOM      5  C   UNL     1      17.900  36.077  54.137  1.00  0.00     0.024 C 
ATOM      6  C   UNL     1      15.817  34.897  53.791  1.00  0.00     0.034 C 
ATOM      7  C   UNL     1      17.349  34.693  53.754  1.00  0.00     0.071 C 
ATOM      8  C   UNL     1      15.257  34.577  55.152  1.00  0.00     0.013 C 
ATOM      9  C   UNL     1      16.015  34.071  56.135  1.00  0.00     0.196 C 
ATOM     10  O   UNL     1      17.334  33.716  56.016  1.00  0.00    -0.472 OA
BRANCH   5  11
ATOM     11  C   UNL     1      19.378  36.276  53.832  1.00  0.00     0.160 C 
BRANCH  11  12
ATOM     12  O   UNL     1      19.700  37.659  53.751  1.00  0.00    -0.396 OA
ATOM     13  H   UNL     1      20.642  37.749  53.983  1.00  0.00     0.210 HD
ENDBRANCH  11  12
ENDBRANCH   5  11
BRANCH   8  14
ATOM     14  C   UNL     1      13.761  34.834  55.420  1.00  0.00     0.071 C 
ATOM     15  O   UNL     1      12.955  34.257  54.637  1.00  0.00    -0.545 OA
ATOM     16  O   UNL     1      13.525  35.602  56.396  1.00  0.00    -0.545 OA
ENDBRANCH   8  14
ENDBRANCH   1   2
BRANCH   1  17
ATOM     17  C   UNL     1      18.015  31.179  54.449  1.00  0.00     0.286 C 
ATOM     18  C   UNL     1      17.038  30.219  55.152  1.00  0.00     0.202 C 
ATOM     19  O   UNL     1      18.560  30.574  53.273  1.00  0.00    -0.341 OA
ATOM     20  C   UNL     1      17.749  28.909  55.472  1.00  0.00     0.179 C 
ATOM     21  C   UNL     1      19.301  29.376  53.568  1.00  0.00     0.178 C 
ATOM     22  C   UNL     1      18.393  28.323  54.214  1.00  0.00     0.177 C 
BRANCH  18  23
ATOM     23  O   UNL     1      16.532  30.760  56.381  1.00  0.00    -0.385 OA
ATOM     24  H   UNL     1      17.061  31.568  56.565  1.00  0.00     0.211 HD
ENDBRANCH  18  23
BRANCH  20  25
ATOM     25  O   UNL     1      16.823  27.952  56.014  1.00  0.00    -0.387 OA
ATOM     26  H   UNL     1      15.946  28.262  55.700  1.00  0.00     0.211 HD
ENDBRANCH  20  25
BRANCH  21  27
ATOM     27  C   UNL     1      19.891  28.867  52.249  1.00  0.00     0.191 C 
BRANCH  27  28
ATOM     28  O   UNL     1      21.285  29.180  52.189  1.00  0.00    -0.394 OA
ATOM     29  H   UNL     1      21.375  29.835  51.468  1.00  0.00     0.210 HD
ENDBRANCH  27  28
ENDBRANCH  21  27
BRANCH  22  30
ATOM     30  O   UNL     1      19.124  27.145  54.567  1.00  0.00    -0.387 OA
ATOM     31  H   UNL     1      19.623  27.393  55.374  1.00  0.00     0.211 HD
ENDBRANCH  22  30
ENDBRANCH   1  17
TORSDOF 10
ENDMDL
MODEL 8
REMARK VINA RESULT:    -7.231      1.936      6.604
REMARK INTER + INTRA:         -10.926
REMARK INTER:                 -10.002
REMARK INTRA:                  -0.924
REMARK UNBOUND:                -0.524
REMARK SMILES O=C([O-])C1=CO[C@@H](O[C@@H]2O[C@H](CO)[C@@H](O)[C@H](O)[C@H]2O)[C@@H]2[C@@H](CO)CC[C@H]12
REMARK SMILES IDX 8 1 7 2 24 3 25 4 21 5 26 6 20 7 4 8 5 9 6 10 22 11 23 12
REMARK SMILES IDX 2 14 1 15 3 16 9 17 18 18 10 19 16 20 11 21 14 22 19 23
REMARK SMILES IDX 17 25 12 27 13 28 15 30
REMARK H PARENT 23 13 19 24 17 26 13 29 15 31
ROOT
ATOM      1  O   UNL     1      17.801  31.925  54.973  1.00  0.00    -0.310 OA
ENDROOT
BRANCH   1   2
ATOM      2  C   UNL     1      16.564  31.224  55.166  1.00  0.00     0.313 C 
ATOM      3  C   UNL     1      14.684  29.453  52.382  1.00  0.00     0.007 C 
ATOM      4  C   UNL     1      16.106  28.928  52.197  1.00  0.00     0.009 C 
ATOM      5  C   UNL     1      14.687  30.093  53.766  1.00  0.00     0.024 C 
ATOM      6  C   UNL     1      17.002  29.705  53.185  1.00  0.00     0.034 C 
ATOM      7  C   UNL     1      16.066  30.776  53.790  1.00  0.00     0.071 C 
ATOM      8  C   UNL     1      17.587  28.823  54.257  1.00  0.00     0.013 C 
ATOM      9  C   UNL     1      17.382  29.053  55.560  1.00  0.00     0.196 C 
ATOM     10  O   UNL     1      16.704  30.126  56.080  1.00  0.00    -0.472 OA
BRANCH   5  11
ATOM     11  C   UNL     1      13.510  31.038  53.966  1.00  0.00     0.160 C 
BRANCH  11  12
ATOM     12  O   UNL     1      13.417  31.970  52.896  1.00  0.00    -0.396 OA
ATOM     13  H   UNL     1      12.989  32.772  53.249  1.00  0.00     0.210 HD
ENDBRANCH  11  12
ENDBRANCH   5  11
BRANCH   8  14
ATOM     14  C   UNL     1      18.455  27.620  53.837  1.00  0.00     0.071 C 
ATOM     15  O   UNL     1      17.843  26.524  53.693  1.00  0.00    -0.545 OA
ATOM     16  O   UNL     1      19.684  27.881  53.694  1.00  0.00    -0.545 OA
ENDBRANCH   8  14
ENDBRANCH   1   2
BRANCH   1  17
ATOM     17  C   UNL     1      17.692  33.313  55.269  1.00  0.00     0.286 C 
ATOM     18  C   UNL     1      18.748  34.019  54.399  1.00  0.00     0.202 C 
ATOM     19  O   UNL     1      16.378  33.773  54.943  1.00  0.00    -0.341 OA
ATOM     20  C   UNL     1      18.622  35.529  54.566  1.00  0.00     0.179 C 
ATOM     21  C   UNL     1      16.221  35.185  55.169  1.00  0.00     0.178 C 
ATOM     22  C   UNL     1      17.189  35.986  54.290  1.00  0.00     0.177 C 
BRANCH  18  23
ATOM     23  O   UNL     1      20.087  33.643  54.754  1.00  0.00    -0.385 OA
ATOM     24  H   UNL     1      20.206  32.719  54.440  1.00  0.00     0.211 HD
ENDBRANCH  18  23
BRANCH  20  25
ATOM     25  O   UNL     1      19.513  36.210  53.666  1.00  0.00    -0.387 OA
ATOM     26  H   UNL     1      20.357  35.714  53.741  1.00  0.00     0.211 HD
ENDBRANCH  20  25
BRANCH  21  27
ATOM     27  C   UNL     1      14.763  35.539  54.855  1.00  0.00     0.191 C 
BRANCH  27  28
ATOM     28  O   UNL     1      14.216  34.576  53.950  1.00  0.00    -0.394 OA
ATOM     29  H   UNL     1      13.304  34.879  53.767  1.00  0.00     0.210 HD
ENDBRANCH  27  28
ENDBRANCH  21  27
BRANCH  22  30
ATOM     30  O   UNL     1      17.088  37.390  54.541  1.00  0.00    -0.387 OA
ATOM     31  H   UNL     1      17.884  37.777  54.120  1.00  0.00     0.211 HD
ENDBRANCH  22  30
ENDBRANCH   1  17
TORSDOF 10
ENDMDL
MODEL 9
REMARK VINA RESULT:    -7.180      1.973      6.999
REMARK INTER + INTRA:         -10.853
REMARK INTER:                  -9.733
REMARK INTRA:                  -1.120
REMARK UNBOUND:                -0.524
REMARK SMILES O=C([O-])C1=CO[C@@H](O[C@@H]2O[C@H](CO)[C@@H](O)[C@H](O)[C@H]2O)[C@@H]2[C@@H](CO)CC[C@H]12
REMARK SMILES IDX 8 1 7 2 24 3 25 4 21 5 26 6 20 7 4 8 5 9 6 10 22 11 23 12
REMARK SMILES IDX 2 14 1 15 3 16 9 17 18 18 10 19 16 20 11 21 14 22 19 23
REMARK SMILES IDX 17 25 12 27 13 28 15 30
REMARK H PARENT 23 13 19 24 17 26 13 29 15 31
ROOT
ATOM      1  O   UNL     1      16.309  31.975  53.591  1.00  0.00    -0.310 OA
ENDROOT
BRANCH   1   2
ATOM      2  C   UNL     1      15.021  31.343  53.647  1.00  0.00     0.313 C 
ATOM      3  C   UNL     1      14.009  28.411  51.456  1.00  0.00     0.007 C 
ATOM      4  C   UNL     1      15.364  27.958  51.997  1.00  0.00     0.009 C 
ATOM      5  C   UNL     1      13.615  29.589  52.341  1.00  0.00     0.024 C 
ATOM      6  C   UNL     1      15.951  29.148  52.786  1.00  0.00     0.034 C 
ATOM      7  C   UNL     1      14.963  30.308  52.522  1.00  0.00     0.071 C 
ATOM      8  C   UNL     1      16.076  28.863  54.260  1.00  0.00     0.013 C 
ATOM      9  C   UNL     1      15.477  29.622  55.187  1.00  0.00     0.196 C 
ATOM     10  O   UNL     1      14.761  30.765  54.935  1.00  0.00    -0.472 OA
BRANCH   5  11
ATOM     11  C   UNL     1      12.522  30.443  51.712  1.00  0.00     0.160 C 
BRANCH  11  12
ATOM     12  O   UNL     1      13.074  31.393  50.810  1.00  0.00    -0.396 OA
ATOM     13  H   UNL     1      13.933  31.041  50.511  1.00  0.00     0.210 HD
ENDBRANCH  11  12
ENDBRANCH   5  11
BRANCH   8  14
ATOM     14  C   UNL     1      16.927  27.661  54.715  1.00  0.00     0.071 C 
ATOM     15  O   UNL     1      18.103  27.615  54.256  1.00  0.00    -0.545 OA
ATOM     16  O   UNL     1      16.335  26.860  55.494  1.00  0.00    -0.545 OA
ENDBRANCH   8  14
ENDBRANCH   1   2
BRANCH   1  17
ATOM     17  C   UNL     1      16.334  33.220  54.279  1.00  0.00     0.286 C 
ATOM     18  C   UNL     1      17.456  33.106  55.326  1.00  0.00     0.202 C 
ATOM     19  O   UNL     1      16.612  34.275  53.353  1.00  0.00    -0.341 OA
ATOM     20  C   UNL     1      17.633  34.444  56.035  1.00  0.00     0.179 C 
ATOM     21  C   UNL     1      16.705  35.558  53.999  1.00  0.00     0.178 C 
ATOM     22  C   UNL     1      17.848  35.568  55.021  1.00  0.00     0.177 C 
BRANCH  18  23
ATOM     23  O   UNL     1      17.174  32.111  56.322  1.00  0.00    -0.385 OA
ATOM     24  H   UNL     1      16.393  32.436  56.822  1.00  0.00     0.211 HD
ENDBRANCH  18  23
BRANCH  20  25
ATOM     25  O   UNL     1      18.759  34.396  56.928  1.00  0.00    -0.387 OA
ATOM     26  H   UNL     1      18.449  34.866  57.732  1.00  0.00     0.211 HD
ENDBRANCH  20  25
BRANCH  21  27
ATOM     27  C   UNL     1      16.931  36.605  52.903  1.00  0.00     0.191 C 
BRANCH  27  28
ATOM     28  O   UNL     1      18.302  37.010  52.895  1.00  0.00    -0.394 OA
ATOM     29  H   UNL     1      18.739  36.440  52.230  1.00  0.00     0.210 HD
ENDBRANCH  27  28
ENDBRANCH  21  27
BRANCH  22  30
ATOM     30  O   UNL     1      17.921  36.817  55.714  1.00  0.00    -0.387 OA
ATOM     31  H   UNL     1      18.862  36.904  55.974  1.00  0.00     0.211 HD
ENDBRANCH  22  30
ENDBRANCH   1  17
TORSDOF 10
ENDMDL
