MODEL 1
REMARK VINA RESULT:    -7.640      0.000      0.000
REMARK INTER + INTRA:         -11.570
REMARK INTER:                 -10.990
REMARK INTRA:                  -0.580
REMARK UNBOUND:                -0.580
REMARK SMILES O=C([O-])C1=CO[C@@H](O[C@@H]2O[C@H](CO)[C@@H](O)[C@H](O)[C@H]2O)[C@@H]2[C@@H](CO)CC[C@H]12
REMARK SMILES IDX 8 1 7 2 24 3 25 4 21 5 26 6 20 7 4 8 5 9 6 10 22 11 23 12
REMARK SMILES IDX 2 14 1 15 3 16 9 17 18 18 10 19 16 20 11 21 14 22 19 23
REMARK SMILES IDX 17 25 12 27 13 28 15 30
REMARK H PARENT 23 13 19 24 17 26 13 29 15 31
ROOT
ATOM      1  O   UNL     1      18.015  33.455  53.262  1.00  0.00    -0.310 OA
ENDROOT
BRANCH   1   2
ATOM      2  C   UNL     1      16.799  34.055  53.734  1.00  0.00     0.313 C 
ATOM      3  C   UNL     1      16.450  35.739  57.120  1.00  0.00     0.007 C 
ATOM      4  C   UNL     1      17.726  36.375  56.573  1.00  0.00     0.009 C 
ATOM      5  C   UNL     1      15.804  35.070  55.911  1.00  0.00     0.024 C 
ATOM      6  C   UNL     1      18.059  35.647  55.253  1.00  0.00     0.034 C 
ATOM      7  C   UNL     1      17.031  34.495  55.181  1.00  0.00     0.071 C 
ATOM      8  C   UNL     1      17.953  36.547  54.049  1.00  0.00     0.013 C 
ATOM      9  C   UNL     1      17.137  36.274  53.023  1.00  0.00     0.196 C 
ATOM     10  O   UNL     1      16.374  35.141  52.896  1.00  0.00    -0.472 OA
BRANCH   5  11
ATOM     11  C   UNL     1      14.764  34.034  56.314  1.00  0.00     0.160 C 
BRANCH  11  12
ATOM     12  O   UNL     1      14.507  34.086  57.711  1.00  0.00    -0.396 OA
ATOM     13  H   UNL     1      14.041  34.923  57.887  1.00  0.00     0.210 HD
ENDBRANCH  11  12
ENDBRANCH   5  11
BRANCH   8  14
ATOM     14  C   UNL     1      18.818  37.823  53.997  1.00  0.00     0.071 C 
ATOM     15  O   UNL     1      18.319  38.848  54.539  1.00  0.00    -0.545 OA
ATOM     16  O   UNL     1      19.928  37.682  53.408  1.00  0.00    -0.545 OA
ENDBRANCH   8  14
ENDBRANCH   1   2
BRANCH   1  17
ATOM     17  C   UNL     1      17.986  32.035  53.338  1.00  0.00     0.286 C 
ATOM     18  C   UNL     1      18.239  31.681  54.815  1.00  0.00     0.202 C 
ATOM     19  O   UNL     1      16.705  31.557  52.916  1.00  0.00    -0.341 OA
ATOM     20  C   UNL     1      18.108  30.175  55.010  1.00  0.00     0.179 C 
ATOM     21  C   UNL     1      16.593  30.126  53.023  1.00  0.00     0.178 C 
ATOM     22  C   UNL     1      16.764  29.676  54.478  1.00  0.00     0.177 C 
BRANCH  18  23
ATOM     23  O   UNL     1      19.548  32.073  55.252  1.00  0.00    -0.385 OA
ATOM     24  H   UNL     1      20.102  32.136  54.442  1.00  0.00     0.211 HD
ENDBRANCH  18  23
BRANCH  20  25
ATOM     25  O   UNL     1      18.215  29.837  56.404  1.00  0.00    -0.387 OA
ATOM     26  H   UNL     1      18.413  30.692  56.844  1.00  0.00     0.211 HD
ENDBRANCH  20  25
BRANCH  21  27
ATOM     27  C   UNL     1      15.215  29.734  52.478  1.00  0.00     0.191 C 
BRANCH  27  28
ATOM     28  O   UNL     1      15.275  28.423  51.910  1.00  0.00    -0.394 OA
ATOM     29  H   UNL     1      15.741  28.529  51.057  1.00  0.00     0.210 HD
ENDBRANCH  27  28
ENDBRANCH  21  27
BRANCH  22  30
ATOM     30  O   UNL     1      16.712  28.252  54.597  1.00  0.00    -0.387 OA
ATOM     31  H   UNL     1      16.688  27.925  53.673  1.00  0.00     0.211 HD
ENDBRANCH  22  30
ENDBRANCH   1  17
TORSDOF 10
ENDMDL
MODEL 2
REMARK VINA RESULT:    -7.321      1.995      2.933
REMARK INTER + INTRA:         -11.111
REMARK INTER:                 -10.326
REMARK INTRA:                  -0.785
REMARK UNBOUND:                -0.580
REMARK SMILES O=C([O-])C1=CO[C@@H](O[C@@H]2O[C@H](CO)[C@@H](O)[C@H](O)[C@H]2O)[C@@H]2[C@@H](CO)CC[C@H]12
REMARK SMILES IDX 8 1 7 2 24 3 25 4 21 5 26 6 20 7 4 8 5 9 6 10 22 11 23 12
REMARK SMILES IDX 2 14 1 15 3 16 9 17 18 18 10 19 16 20 11 21 14 22 19 23
REMARK SMILES IDX 17 25 12 27 13 28 15 30
REMARK H PARENT 23 13 19 24 17 26 13 29 15 31
ROOT
ATOM      1  O   UNL     1      18.086  32.147  55.352  1.00  0.00    -0.310 OA
ENDROOT
BRANCH   1   2
ATOM      2  C   UNL     1      17.036  32.510  54.442  1.00  0.00     0.313 C 
ATOM      3  C   UNL     1      13.988  34.545  55.436  1.00  0.00     0.007 C 
ATOM      4  C   UNL     1      15.133  35.373  56.016  1.00  0.00     0.009 C 
ATOM      5  C   UNL     1      14.664  33.573  54.475  1.00  0.00     0.024 C 
ATOM      6  C   UNL     1      16.426  34.556  55.807  1.00  0.00     0.034 C 
ATOM      7  C   UNL     1      15.937  33.199  55.254  1.00  0.00     0.071 C 
ATOM      8  C   UNL     1      17.386  35.220  54.854  1.00  0.00     0.013 C 
ATOM      9  C   UNL     1      17.817  34.616  53.739  1.00  0.00     0.196 C 
ATOM     10  O   UNL     1      17.517  33.331  53.367  1.00  0.00    -0.472 OA
BRANCH   5  11
ATOM     11  C   UNL     1      13.768  32.394  54.123  1.00  0.00     0.160 C 
BRANCH  11  12
ATOM     12  O   UNL     1      13.862  32.077  52.739  1.00  0.00    -0.396 OA
ATOM     13  H   UNL     1      12.955  32.075  52.382  1.00  0.00     0.210 HD
ENDBRANCH  11  12
ENDBRANCH   5  11
BRANCH   8  14
ATOM     14  C   UNL     1      17.893  36.640  55.179  1.00  0.00     0.071 C 
ATOM     15  O   UNL     1      18.640  36.738  56.192  1.00  0.00    -0.545 OA
ATOM     16  O   UNL     1      17.489  37.537  54.385  1.00  0.00    -0.545 OA
ENDBRANCH   8  14
ENDBRANCH   1   2
BRANCH   1  17
ATOM     17  C   UNL     1      18.474  30.784  55.219  1.00  0.00     0.286 C 
ATOM     18  C   UNL     1      17.229  29.950  55.574  1.00  0.00     0.202 C 
ATOM     19  O   UNL     1      18.886  30.530  53.873  1.00  0.00    -0.341 OA
ATOM     20  C   UNL     1      17.521  28.472  55.344  1.00  0.00     0.179 C 
ATOM     21  C   UNL     1      19.239  29.151  53.660  1.00  0.00     0.178 C 
ATOM     22  C   UNL     1      18.037  28.237  53.924  1.00  0.00     0.177 C 
BRANCH  18  23
ATOM     23  O   UNL     1      16.834  30.117  56.943  1.00  0.00    -0.385 OA
ATOM     24  H   UNL     1      16.119  29.462  57.105  1.00  0.00     0.211 HD
ENDBRANCH  18  23
BRANCH  20  25
ATOM     25  O   UNL     1      16.334  27.686  55.548  1.00  0.00    -0.387 OA
ATOM     26  H   UNL     1      16.243  27.637  56.524  1.00  0.00     0.211 HD
ENDBRANCH  20  25
BRANCH  21  27
ATOM     27  C   UNL     1      19.729  29.023  52.214  1.00  0.00     0.191 C 
BRANCH  27  28
ATOM     28  O   UNL     1      21.156  29.091  52.178  1.00  0.00    -0.394 OA
ATOM     29  H   UNL     1      21.468  28.235  52.536  1.00  0.00     0.210 HD
ENDBRANCH  27  28
ENDBRANCH  21  27
BRANCH  22  30
ATOM     30  O   UNL     1      18.384  26.858  53.772  1.00  0.00    -0.387 OA
ATOM     31  H   UNL     1      18.996  26.837  53.007  1.00  0.00     0.211 HD
ENDBRANCH  22  30
ENDBRANCH   1  17
TORSDOF 10
ENDMDL
MODEL 3
REMARK VINA RESULT:    -7.245      1.847      3.755
REMARK INTER + INTRA:         -11.001
REMARK INTER:                  -9.993
REMARK INTRA:                  -1.008
REMARK UNBOUND:                -0.580
REMARK SMILES O=C([O-])C1=CO[C@@H](O[C@@H]2O[C@H](CO)[C@@H](O)[C@H](O)[C@H]2O)[C@@H]2[C@@H](CO)CC[C@H]12
REMARK SMILES IDX 8 1 7 2 24 3 25 4 21 5 26 6 20 7 4 8 5 9 6 10 22 11 23 12
REMARK SMILES IDX 2 14 1 15 3 16 9 17 18 18 10 19 16 20 11 21 14 22 19 23
REMARK SMILES IDX 17 25 12 27 13 28 15 30
REMARK H PARENT 23 13 19 24 17 26 13 29 15 31
ROOT
ATOM      1  O   UNL     1      17.122  32.866  55.833  1.00  0.00    -0.310 OA
ENDROOT
BRANCH   1   2
ATOM      2  C   UNL     1      17.262  34.258  55.508  1.00  0.00     0.313 C 
ATOM      3  C   UNL     1      14.470  36.378  54.047  1.00  0.00     0.007 C 
ATOM      4  C   UNL     1      13.776  35.695  55.224  1.00  0.00     0.009 C 
ATOM      5  C   UNL     1      15.958  36.151  54.294  1.00  0.00     0.024 C 
ATOM      6  C   UNL     1      14.780  34.678  55.807  1.00  0.00     0.034 C 
ATOM      7  C   UNL     1      15.970  34.706  54.821  1.00  0.00     0.071 C 
ATOM      8  C   UNL     1      15.221  35.032  57.204  1.00  0.00     0.013 C 
ATOM      9  C   UNL     1      16.509  35.223  57.519  1.00  0.00     0.196 C 
ATOM     10  O   UNL     1      17.568  35.052  56.665  1.00  0.00    -0.472 OA
BRANCH   5  11
ATOM     11  C   UNL     1      16.791  36.373  53.038  1.00  0.00     0.160 C 
BRANCH  11  12
ATOM     12  O   UNL     1      16.628  35.298  52.122  1.00  0.00    -0.396 OA
ATOM     13  H   UNL     1      16.096  34.616  52.570  1.00  0.00     0.210 HD
ENDBRANCH  11  12
ENDBRANCH   5  11
BRANCH   8  14
ATOM     14  C   UNL     1      14.153  35.173  58.308  1.00  0.00     0.071 C 
ATOM     15  O   UNL     1      13.814  36.355  58.596  1.00  0.00    -0.545 OA
ATOM     16  O   UNL     1      13.751  34.078  58.794  1.00  0.00    -0.545 OA
ENDBRANCH   8  14
ENDBRANCH   1   2
BRANCH   1  17
ATOM     17  C   UNL     1      17.313  32.023  54.703  1.00  0.00     0.286 C 
ATOM     18  C   UNL     1      18.487  31.093  55.060  1.00  0.00     0.202 C 
ATOM     19  O   UNL     1      16.124  31.265  54.461  1.00  0.00    -0.341 OA
ATOM     20  C   UNL     1      18.688  30.071  53.947  1.00  0.00     0.179 C 
ATOM     21  C   UNL     1      16.274  30.349  53.360  1.00  0.00     0.178 C 
ATOM     22  C   UNL     1      17.383  29.331  53.651  1.00  0.00     0.177 C 
BRANCH  18  23
ATOM     23  O   UNL     1      19.718  31.810  55.231  1.00  0.00    -0.385 OA
ATOM     24  H   UNL     1      20.140  31.445  56.040  1.00  0.00     0.211 HD
ENDBRANCH  18  23
BRANCH  20  25
ATOM     25  O   UNL     1      19.696  29.114  54.317  1.00  0.00    -0.387 OA
ATOM     26  H   UNL     1      19.676  29.112  55.299  1.00  0.00     0.211 HD
ENDBRANCH  20  25
BRANCH  21  27
ATOM     27  C   UNL     1      14.923  29.657  53.156  1.00  0.00     0.191 C 
BRANCH  27  28
ATOM     28  O   UNL     1      14.947  28.897  51.945  1.00  0.00    -0.394 OA
ATOM     29  H   UNL     1      14.280  28.191  52.066  1.00  0.00     0.210 HD
ENDBRANCH  27  28
ENDBRANCH  21  27
BRANCH  22  30
ATOM     30  O   UNL     1      17.585  28.447  52.545  1.00  0.00    -0.387 OA
ATOM     31  H   UNL     1      17.260  28.943  51.765  1.00  0.00     0.211 HD
ENDBRANCH  22  30
ENDBRANCH   1  17
TORSDOF 10
ENDMDL
MODEL 4
REMARK VINA RESULT:    -7.237      1.973      6.615
REMARK INTER + INTRA:         -10.990
REMARK INTER:                 -10.095
REMARK INTRA:                  -0.895
REMARK UNBOUND:                -0.580
REMARK SMILES O=C([O-])C1=CO[C@@H](O[C@@H]2O[C@H](CO)[C@@H](O)[C@H](O)[C@H]2O)[C@@H]2[C@@H](CO)CC[C@H]12
REMARK SMILES IDX 8 1 7 2 24 3 25 4 21 5 26 6 20 7 4 8 5 9 6 10 22 11 23 12
REMARK SMILES IDX 2 14 1 15 3 16 9 17 18 18 10 19 16 20 11 21 14 22 19 23
REMARK SMILES IDX 17 25 12 27 13 28 15 30
REMARK H PARENT 23 13 19 24 17 26 13 29 15 31
ROOT
ATOM      1  O   UNL     1      17.713  31.944  54.884  1.00  0.00    -0.310 OA
ENDROOT
BRANCH   1   2
ATOM      2  C   UNL     1      16.494  31.212  55.084  1.00  0.00     0.313 C 
ATOM      3  C   UNL     1      14.681  29.332  52.328  1.00  0.00     0.007 C 
ATOM      4  C   UNL     1      16.119  28.845  52.160  1.00  0.00     0.009 C 
ATOM      5  C   UNL     1      14.658  30.001  53.698  1.00  0.00     0.024 C 
ATOM      6  C   UNL     1      16.987  29.667  53.137  1.00  0.00     0.034 C 
ATOM      7  C   UNL     1      16.017  30.722  53.716  1.00  0.00     0.071 C 
ATOM      8  C   UNL     1      17.590  28.824  54.229  1.00  0.00     0.013 C 
ATOM      9  C   UNL     1      17.372  29.073  55.527  1.00  0.00     0.196 C 
ATOM     10  O   UNL     1      16.660  30.137  56.021  1.00  0.00    -0.472 OA
BRANCH   5  11
ATOM     11  C   UNL     1      13.454  30.915  53.873  1.00  0.00     0.160 C 
BRANCH  11  12
ATOM     12  O   UNL     1      13.375  31.862  52.816  1.00  0.00    -0.396 OA
ATOM     13  H   UNL     1      12.455  32.182  52.783  1.00  0.00     0.210 HD
ENDBRANCH  11  12
ENDBRANCH   5  11
BRANCH   8  14
ATOM     14  C   UNL     1      18.495  27.637  53.839  1.00  0.00     0.071 C 
ATOM     15  O   UNL     1      17.913  26.525  53.699  1.00  0.00    -0.545 OA
ATOM     16  O   UNL     1      19.719  27.928  53.711  1.00  0.00    -0.545 OA
ENDBRANCH   8  14
ENDBRANCH   1   2
BRANCH   1  17
ATOM     17  C   UNL     1      17.564  33.333  55.159  1.00  0.00     0.286 C 
ATOM     18  C   UNL     1      18.688  34.043  54.383  1.00  0.00     0.202 C 
ATOM     19  O   UNL     1      16.281  33.778  54.709  1.00  0.00    -0.341 OA
ATOM     20  C   UNL     1      18.534  35.553  54.526  1.00  0.00     0.179 C 
ATOM     21  C   UNL     1      16.091  35.190  54.909  1.00  0.00     0.178 C 
ATOM     22  C   UNL     1      17.129  35.994  54.117  1.00  0.00     0.177 C 
BRANCH  18  23
ATOM     23  O   UNL     1      19.993  33.683  54.862  1.00  0.00    -0.385 OA
ATOM     24  H   UNL     1      20.633  34.234  54.359  1.00  0.00     0.211 HD
ENDBRANCH  18  23
BRANCH  20  25
ATOM     25  O   UNL     1      19.498  36.237  53.707  1.00  0.00    -0.387 OA
ATOM     26  H   UNL     1      20.163  36.572  54.347  1.00  0.00     0.211 HD
ENDBRANCH  20  25
BRANCH  21  27
ATOM     27  C   UNL     1      14.665  35.528  54.460  1.00  0.00     0.191 C 
BRANCH  27  28
ATOM     28  O   UNL     1      14.047  34.366  53.901  1.00  0.00    -0.394 OA
ATOM     29  H   UNL     1      14.769  33.718  53.779  1.00  0.00     0.210 HD
ENDBRANCH  27  28
ENDBRANCH  21  27
BRANCH  22  30
ATOM     30  O   UNL     1      16.992  37.399  54.347  1.00  0.00    -0.387 OA
ATOM     31  H   UNL     1      17.850  37.673  54.734  1.00  0.00     0.211 HD
ENDBRANCH  22  30
ENDBRANCH   1  17
TORSDOF 10
ENDMDL
MODEL 5
REMARK VINA RESULT:    -7.233      9.618     12.922
REMARK INTER + INTRA:         -10.983
REMARK INTER:                 -10.188
REMARK INTRA:                  -0.796
REMARK UNBOUND:                -0.580
REMARK SMILES O=C([O-])C1=CO[C@@H](O[C@@H]2O[C@H](CO)[C@@H](O)[C@H](O)[C@H]2O)[C@@H]2[C@@H](CO)CC[C@H]12
REMARK SMILES IDX 8 1 7 2 24 3 25 4 21 5 26 6 20 7 4 8 5 9 6 10 22 11 23 12
REMARK SMILES IDX 2 14 1 15 3 16 9 17 18 18 10 19 16 20 11 21 14 22 19 23
REMARK SMILES IDX 17 25 12 27 13 28 15 30
REMARK H PARENT 23 13 19 24 17 26 13 29 15 31
ROOT
ATOM      1  O   UNL     1       6.811  38.909  56.941  1.00  0.00    -0.310 OA
ENDROOT
BRANCH   1   2
ATOM      2  C   UNL     1       5.528  38.608  56.370  1.00  0.00     0.313 C 
ATOM      3  C   UNL     1       3.591  35.423  57.092  1.00  0.00     0.007 C 
ATOM      4  C   UNL     1       3.970  35.895  58.494  1.00  0.00     0.009 C 
ATOM      5  C   UNL     1       3.852  36.629  56.195  1.00  0.00     0.024 C 
ATOM      6  C   UNL     1       4.904  37.112  58.318  1.00  0.00     0.034 C 
ATOM      7  C   UNL     1       5.154  37.187  56.795  1.00  0.00     0.071 C 
ATOM      8  C   UNL     1       4.295  38.390  58.834  1.00  0.00     0.013 C 
ATOM      9  C   UNL     1       4.123  39.464  58.053  1.00  0.00     0.196 C 
ATOM     10  O   UNL     1       4.532  39.571  56.748  1.00  0.00    -0.472 OA
BRANCH   5  11
ATOM     11  C   UNL     1       3.946  36.244  54.725  1.00  0.00     0.160 C 
BRANCH  11  12
ATOM     12  O   UNL     1       5.267  35.838  54.388  1.00  0.00    -0.396 OA
ATOM     13  H   UNL     1       5.831  36.631  54.428  1.00  0.00     0.210 HD
ENDBRANCH  11  12
ENDBRANCH   5  11
BRANCH   8  14
ATOM     14  C   UNL     1       3.864  38.464  60.313  1.00  0.00     0.071 C 
ATOM     15  O   UNL     1       4.519  37.740  61.113  1.00  0.00    -0.545 OA
ATOM     16  O   UNL     1       2.895  39.244  60.540  1.00  0.00    -0.545 OA
ENDBRANCH   8  14
ENDBRANCH   1   2
BRANCH   1  17
ATOM     17  C   UNL     1       7.886  38.414  56.152  1.00  0.00     0.286 C 
ATOM     18  C   UNL     1       8.499  39.639  55.449  1.00  0.00     0.202 C 
ATOM     19  O   UNL     1       8.851  37.781  56.998  1.00  0.00    -0.341 OA
ATOM     20  C   UNL     1       9.739  39.215  54.669  1.00  0.00     0.179 C 
ATOM     21  C   UNL     1       9.995  37.306  56.263  1.00  0.00     0.178 C 
ATOM     22  C   UNL     1      10.719  38.470  55.576  1.00  0.00     0.177 C 
BRANCH  18  23
ATOM     23  O   UNL     1       7.585  40.253  54.529  1.00  0.00    -0.385 OA
ATOM     24  H   UNL     1       6.836  39.625  54.424  1.00  0.00     0.211 HD
ENDBRANCH  18  23
BRANCH  20  25
ATOM     25  O   UNL     1      10.398  40.363  54.109  1.00  0.00    -0.387 OA
ATOM     26  H   UNL     1      10.147  40.345  53.160  1.00  0.00     0.211 HD
ENDBRANCH  20  25
BRANCH  21  27
ATOM     27  C   UNL     1      10.913  36.590  57.260  1.00  0.00     0.191 C 
BRANCH  27  28
ATOM     28  O   UNL     1      11.960  37.472  57.672  1.00  0.00    -0.394 OA
ATOM     29  H   UNL     1      12.403  37.020  58.418  1.00  0.00     0.210 HD
ENDBRANCH  27  28
ENDBRANCH  21  27
BRANCH  22  30
ATOM     30  O   UNL     1      11.825  38.011  54.795  1.00  0.00    -0.387 OA
ATOM     31  H   UNL     1      11.469  37.260  54.275  1.00  0.00     0.211 HD
ENDBRANCH  22  30
ENDBRANCH   1  17
TORSDOF 10
ENDMDL
MODEL 6
REMARK VINA RESULT:    -7.197      1.684      2.059
REMARK INTER + INTRA:         -10.932
REMARK INTER:                  -9.906
REMARK INTRA:                  -1.026
REMARK UNBOUND:                -0.580
REMARK SMILES O=C([O-])C1=CO[C@@H](O[C@@H]2O[C@H](CO)[C@@H](O)[C@H](O)[C@H]2O)[C@@H]2[C@@H](CO)CC[C@H]12
REMARK SMILES IDX 8 1 7 2 24 3 25 4 21 5 26 6 20 7 4 8 5 9 6 10 22 11 23 12
REMARK SMILES IDX 2 14 1 15 3 16 9 17 18 18 10 19 16 20 11 21 14 22 19 23
REMARK SMILES IDX 17 25 12 27 13 28 15 30
REMARK H PARENT 23 13 19 24 17 26 13 29 15 31
ROOT
ATOM      1  O   UNL     1      17.691  32.301  53.917  1.00  0.00    -0.310 OA
ENDROOT
BRANCH   1   2
ATOM      2  C   UNL     1      16.441  32.884  53.518  1.00  0.00     0.313 C 
ATOM      3  C   UNL     1      14.066  34.633  55.910  1.00  0.00     0.007 C 
ATOM      4  C   UNL     1      15.405  35.285  56.249  1.00  0.00     0.009 C 
ATOM      5  C   UNL     1      14.308  33.923  54.582  1.00  0.00     0.024 C 
ATOM      6  C   UNL     1      16.485  34.536  55.439  1.00  0.00     0.034 C 
ATOM      7  C   UNL     1      15.726  33.360  54.784  1.00  0.00     0.071 C 
ATOM      8  C   UNL     1      17.142  35.407  54.400  1.00  0.00     0.013 C 
ATOM      9  C   UNL     1      17.136  35.093  53.099  1.00  0.00     0.196 C 
ATOM     10  O   UNL     1      16.620  33.941  52.563  1.00  0.00    -0.472 OA
BRANCH   5  11
ATOM     11  C   UNL     1      13.246  32.872  54.287  1.00  0.00     0.160 C 
BRANCH  11  12
ATOM     12  O   UNL     1      13.335  32.421  52.942  1.00  0.00    -0.396 OA
ATOM     13  H   UNL     1      12.447  32.114  52.682  1.00  0.00     0.210 HD
ENDBRANCH  11  12
ENDBRANCH   5  11
BRANCH   8  14
ATOM     14  C   UNL     1      17.849  36.700  54.854  1.00  0.00     0.071 C 
ATOM     15  O   UNL     1      18.659  36.575  55.815  1.00  0.00    -0.545 OA
ATOM     16  O   UNL     1      17.522  37.735  54.205  1.00  0.00    -0.545 OA
ENDBRANCH   8  14
ENDBRANCH   1   2
BRANCH   1  17
ATOM     17  C   UNL     1      17.774  30.918  53.594  1.00  0.00     0.286 C 
ATOM     18  C   UNL     1      18.080  30.189  54.915  1.00  0.00     0.202 C 
ATOM     19  O   UNL     1      16.528  30.475  53.049  1.00  0.00    -0.341 OA
ATOM     20  C   UNL     1      18.070  28.683  54.682  1.00  0.00     0.179 C 
ATOM     21  C   UNL     1      16.530  29.067  52.752  1.00  0.00     0.178 C 
ATOM     22  C   UNL     1      16.761  28.245  54.026  1.00  0.00     0.177 C 
BRANCH  18  23
ATOM     23  O   UNL     1      19.362  30.548  55.450  1.00  0.00    -0.385 OA
ATOM     24  H   UNL     1      19.462  30.043  56.288  1.00  0.00     0.211 HD
ENDBRANCH  18  23
BRANCH  20  25
ATOM     25  O   UNL     1      18.228  27.980  55.927  1.00  0.00    -0.387 OA
ATOM     26  H   UNL     1      18.739  27.177  55.687  1.00  0.00     0.211 HD
ENDBRANCH  20  25
BRANCH  21  27
ATOM     27  C   UNL     1      15.178  28.733  52.112  1.00  0.00     0.191 C 
BRANCH  27  28
ATOM     28  O   UNL     1      14.433  29.935  51.900  1.00  0.00    -0.394 OA
ATOM     29  H   UNL     1      13.753  29.707  51.234  1.00  0.00     0.210 HD
ENDBRANCH  27  28
ENDBRANCH  21  27
BRANCH  22  30
ATOM     30  O   UNL     1      16.823  26.845  53.742  1.00  0.00    -0.387 OA
ATOM     31  H   UNL     1      16.097  26.687  53.103  1.00  0.00     0.211 HD
ENDBRANCH  22  30
ENDBRANCH   1  17
TORSDOF 10
ENDMDL
MODEL 7
REMARK VINA RESULT:    -7.167      2.241      7.101
REMARK INTER + INTRA:         -10.889
REMARK INTER:                  -9.956
REMARK INTRA:                  -0.933
REMARK UNBOUND:                -0.580
REMARK SMILES O=C([O-])C1=CO[C@@H](O[C@@H]2O[C@H](CO)[C@@H](O)[C@H](O)[C@H]2O)[C@@H]2[C@@H](CO)CC[C@H]12
REMARK SMILES IDX 8 1 7 2 24 3 25 4 21 5 26 6 20 7 4 8 5 9 6 10 22 11 23 12
REMARK SMILES IDX 2 14 1 15 3 16 9 17 18 18 10 19 16 20 11 21 14 22 19 23
REMARK SMILES IDX 17 25 12 27 13 28 15 30
REMARK H PARENT 23 13 19 24 17 26 13 29 15 31
ROOT
ATOM      1  O   UNL     1      16.463  31.491  52.591  1.00  0.00    -0.310 OA
ENDROOT
BRANCH   1   2
ATOM      2  C   UNL     1      15.153  30.937  52.786  1.00  0.00     0.313 C 
ATOM      3  C   UNL     1      14.061  27.565  51.425  1.00  0.00     0.007 C 
ATOM      4  C   UNL     1      15.393  27.228  52.092  1.00  0.00     0.009 C 
ATOM      5  C   UNL     1      13.699  28.946  51.962  1.00  0.00     0.024 C 
ATOM      6  C   UNL     1      16.014  28.565  52.551  1.00  0.00     0.034 C 
ATOM      7  C   UNL     1      15.070  29.644  51.972  1.00  0.00     0.071 C 
ATOM      8  C   UNL     1      16.113  28.675  54.050  1.00  0.00     0.013 C 
ATOM      9  C   UNL     1      15.532  29.670  54.733  1.00  0.00     0.196 C 
ATOM     10  O   UNL     1      14.859  30.727  54.176  1.00  0.00    -0.472 OA
BRANCH   5  11
ATOM     11  C   UNL     1      12.644  29.637  51.109  1.00  0.00     0.160 C 
BRANCH  11  12
ATOM     12  O   UNL     1      12.257  28.817  50.014  1.00  0.00    -0.396 OA
ATOM     13  H   UNL     1      11.700  29.363  49.429  1.00  0.00     0.210 HD
ENDBRANCH  11  12
ENDBRANCH   5  11
BRANCH   8  14
ATOM     14  C   UNL     1      16.917  27.609  54.822  1.00  0.00     0.071 C 
ATOM     15  O   UNL     1      16.253  26.891  55.621  1.00  0.00    -0.545 OA
ATOM     16  O   UNL     1      18.154  27.591  54.560  1.00  0.00    -0.545 OA
ENDBRANCH   8  14
ENDBRANCH   1   2
BRANCH   1  17
ATOM     17  C   UNL     1      16.767  32.513  53.534  1.00  0.00     0.286 C 
ATOM     18  C   UNL     1      18.265  32.362  53.857  1.00  0.00     0.202 C 
ATOM     19  O   UNL     1      16.501  33.794  52.958  1.00  0.00    -0.341 OA
ATOM     20  C   UNL     1      18.707  33.495  54.776  1.00  0.00     0.179 C 
ATOM     21  C   UNL     1      16.842  34.875  53.846  1.00  0.00     0.178 C 
ATOM     22  C   UNL     1      18.339  34.852  54.176  1.00  0.00     0.177 C 
BRANCH  18  23
ATOM     23  O   UNL     1      18.559  31.119  54.512  1.00  0.00    -0.385 OA
ATOM     24  H   UNL     1      18.267  31.223  55.444  1.00  0.00     0.211 HD
ENDBRANCH  18  23
BRANCH  20  25
ATOM     25  O   UNL     1      20.129  33.445  54.988  1.00  0.00    -0.387 OA
ATOM     26  H   UNL     1      20.361  34.355  55.274  1.00  0.00     0.211 HD
ENDBRANCH  20  25
BRANCH  21  27
ATOM     27  C   UNL     1      16.446  36.181  53.149  1.00  0.00     0.191 C 
BRANCH  27  28
ATOM     28  O   UNL     1      17.610  36.816  52.614  1.00  0.00    -0.394 OA
ATOM     29  H   UNL     1      17.933  37.409  53.323  1.00  0.00     0.210 HD
ENDBRANCH  27  28
ENDBRANCH  21  27
BRANCH  22  30
ATOM     30  O   UNL     1      18.688  35.884  55.102  1.00  0.00    -0.387 OA
ATOM     31  H   UNL     1      18.724  35.436  55.973  1.00  0.00     0.211 HD
ENDBRANCH  22  30
ENDBRANCH   1  17
TORSDOF 10
ENDMDL
MODEL 8
REMARK VINA RESULT:    -7.139      2.580      6.400
REMARK INTER + INTRA:         -10.848
REMARK INTER:                  -9.788
REMARK INTRA:                  -1.060
REMARK UNBOUND:                -0.580
REMARK SMILES O=C([O-])C1=CO[C@@H](O[C@@H]2O[C@H](CO)[C@@H](O)[C@H](O)[C@H]2O)[C@@H]2[C@@H](CO)CC[C@H]12
REMARK SMILES IDX 8 1 7 2 24 3 25 4 21 5 26 6 20 7 4 8 5 9 6 10 22 11 23 12
REMARK SMILES IDX 2 14 1 15 3 16 9 17 18 18 10 19 16 20 11 21 14 22 19 23
REMARK SMILES IDX 17 25 12 27 13 28 15 30
REMARK H PARENT 23 13 19 24 17 26 13 29 15 31
ROOT
ATOM      1  O   UNL     1      14.901  33.830  55.727  1.00  0.00    -0.310 OA
ENDROOT
BRANCH   1   2
ATOM      2  C   UNL     1      15.430  34.405  54.523  1.00  0.00     0.313 C 
ATOM      3  C   UNL     1      19.063  35.417  54.084  1.00  0.00     0.007 C 
ATOM      4  C   UNL     1      19.187  34.003  54.649  1.00  0.00     0.009 C 
ATOM      5  C   UNL     1      17.605  35.533  53.654  1.00  0.00     0.024 C 
ATOM      6  C   UNL     1      17.761  33.542  55.018  1.00  0.00     0.034 C 
ATOM      7  C   UNL     1      16.884  34.796  54.796  1.00  0.00     0.071 C 
ATOM      8  C   UNL     1      17.287  32.388  54.174  1.00  0.00     0.013 C 
ATOM      9  C   UNL     1      16.173  32.456  53.432  1.00  0.00     0.196 C 
ATOM     10  O   UNL     1      15.304  33.517  53.402  1.00  0.00    -0.472 OA
BRANCH   5  11
ATOM     11  C   UNL     1      17.174  36.981  53.465  1.00  0.00     0.160 C 
BRANCH  11  12
ATOM     12  O   UNL     1      17.909  37.848  54.320  1.00  0.00    -0.396 OA
ATOM     13  H   UNL     1      18.421  38.448  53.749  1.00  0.00     0.210 HD
ENDBRANCH  11  12
ENDBRANCH   5  11
BRANCH   8  14
ATOM     14  C   UNL     1      18.108  31.083  54.170  1.00  0.00     0.071 C 
ATOM     15  O   UNL     1      18.589  30.740  53.054  1.00  0.00    -0.545 OA
ATOM     16  O   UNL     1      18.193  30.511  55.294  1.00  0.00    -0.545 OA
ENDBRANCH   8  14
ENDBRANCH   1   2
BRANCH   1  17
ATOM     17  C   UNL     1      13.669  34.424  56.119  1.00  0.00     0.286 C 
ATOM     18  C   UNL     1      13.966  35.211  57.408  1.00  0.00     0.202 C 
ATOM     19  O   UNL     1      13.208  35.300  55.086  1.00  0.00    -0.341 OA
ATOM     20  C   UNL     1      12.721  35.980  57.836  1.00  0.00     0.179 C 
ATOM     21  C   UNL     1      11.989  35.976  55.446  1.00  0.00     0.178 C 
ATOM     22  C   UNL     1      12.200  36.848  56.690  1.00  0.00     0.177 C 
BRANCH  18  23
ATOM     23  O   UNL     1      14.353  34.355  58.492  1.00  0.00    -0.385 OA
ATOM     24  H   UNL     1      14.913  34.901  59.088  1.00  0.00     0.211 HD
ENDBRANCH  18  23
BRANCH  20  25
ATOM     25  O   UNL     1      13.012  36.821  58.966  1.00  0.00    -0.387 OA
ATOM     26  H   UNL     1      13.209  37.697  58.569  1.00  0.00     0.211 HD
ENDBRANCH  20  25
BRANCH  21  27
ATOM     27  C   UNL     1      11.562  36.821  54.241  1.00  0.00     0.191 C 
BRANCH  27  28
ATOM     28  O   UNL     1      12.105  38.138  54.357  1.00  0.00    -0.394 OA
ATOM     29  H   UNL     1      11.833  38.606  53.542  1.00  0.00     0.210 HD
ENDBRANCH  27  28
ENDBRANCH  21  27
BRANCH  22  30
ATOM     30  O   UNL     1      10.986  37.484  57.097  1.00  0.00    -0.387 OA
ATOM     31  H   UNL     1      10.683  37.975  56.304  1.00  0.00     0.211 HD
ENDBRANCH  22  30
ENDBRANCH   1  17
TORSDOF 10
ENDMDL
MODEL 9
REMARK VINA RESULT:    -7.110      8.347     12.009
REMARK INTER + INTRA:         -10.807
REMARK INTER:                  -9.563
REMARK INTRA:                  -1.244
REMARK UNBOUND:                -0.580
REMARK SMILES O=C([O-])C1=CO[C@@H](O[C@@H]2O[C@H](CO)[C@@H](O)[C@H](O)[C@H]2O)[C@@H]2[C@@H](CO)CC[C@H]12
REMARK SMILES IDX 8 1 7 2 24 3 25 4 21 5 26 6 20 7 4 8 5 9 6 10 22 11 23 12
REMARK SMILES IDX 2 14 1 15 3 16 9 17 18 18 10 19 16 20 11 21 14 22 19 23
REMARK SMILES IDX 17 25 12 27 13 28 15 30
REMARK H PARENT 23 13 19 24 17 26 13 29 15 31
ROOT
ATOM      1  O   UNL     1       7.082  37.376  57.228  1.00  0.00    -0.310 OA
ENDROOT
BRANCH   1   2
ATOM      2  C   UNL     1       7.833  36.514  58.097  1.00  0.00     0.313 C 
ATOM      3  C   UNL     1       9.353  37.639  61.390  1.00  0.00     0.007 C 
ATOM      4  C   UNL     1       7.921  38.160  61.500  1.00  0.00     0.009 C 
ATOM      5  C   UNL     1       9.316  36.652  60.228  1.00  0.00     0.024 C 
ATOM      6  C   UNL     1       7.243  37.895  60.139  1.00  0.00     0.034 C 
ATOM      7  C   UNL     1       8.385  37.372  59.237  1.00  0.00     0.071 C 
ATOM      8  C   UNL     1       6.121  36.895  60.233  1.00  0.00     0.013 C 
ATOM      9  C   UNL     1       6.111  35.764  59.515  1.00  0.00     0.196 C 
ATOM     10  O   UNL     1       7.046  35.413  58.575  1.00  0.00    -0.472 OA
BRANCH   5  11
ATOM     11  C   UNL     1      10.705  36.348  59.685  1.00  0.00     0.160 C 
BRANCH  11  12
ATOM     12  O   UNL     1      11.132  37.361  58.782  1.00  0.00    -0.396 OA
ATOM     13  H   UNL     1      10.729  37.164  57.917  1.00  0.00     0.210 HD
ENDBRANCH  11  12
ENDBRANCH   5  11
BRANCH   8  14
ATOM     14  C   UNL     1       4.942  37.187  61.183  1.00  0.00     0.071 C 
ATOM     15  O   UNL     1       4.827  36.410  62.172  1.00  0.00    -0.545 OA
ATOM     16  O   UNL     1       4.228  38.175  60.847  1.00  0.00    -0.545 OA
ENDBRANCH   8  14
ENDBRANCH   1   2
BRANCH   1  17
ATOM     17  C   UNL     1       7.805  37.727  56.054  1.00  0.00     0.286 C 
ATOM     18  C   UNL     1       7.636  39.249  55.890  1.00  0.00     0.202 C 
ATOM     19  O   UNL     1       9.185  37.387  56.218  1.00  0.00    -0.341 OA
ATOM     20  C   UNL     1       8.478  39.734  54.715  1.00  0.00     0.179 C 
ATOM     21  C   UNL     1       9.981  37.770  55.082  1.00  0.00     0.178 C 
ATOM     22  C   UNL     1       9.933  39.288  54.873  1.00  0.00     0.177 C 
BRANCH  18  23
ATOM     23  O   UNL     1       6.272  39.622  55.641  1.00  0.00    -0.385 OA
ATOM     24  H   UNL     1       5.745  38.794  55.698  1.00  0.00     0.211 HD
ENDBRANCH  18  23
BRANCH  20  25
ATOM     25  O   UNL     1       8.435  41.168  54.622  1.00  0.00    -0.387 OA
ATOM     26  H   UNL     1       8.914  41.370  53.790  1.00  0.00     0.211 HD
ENDBRANCH  20  25
BRANCH  21  27
ATOM     27  C   UNL     1      11.412  37.290  55.345  1.00  0.00     0.191 C 
BRANCH  27  28
ATOM     28  O   UNL     1      12.060  38.180  56.258  1.00  0.00    -0.394 OA
ATOM     29  H   UNL     1      12.999  38.200  55.982  1.00  0.00     0.210 HD
ENDBRANCH  27  28
ENDBRANCH  21  27
BRANCH  22  30
ATOM     30  O   UNL     1      10.672  39.682  53.715  1.00  0.00    -0.387 OA
ATOM     31  H   UNL     1      10.394  39.055  53.015  1.00  0.00     0.211 HD
ENDBRANCH  22  30
ENDBRANCH   1  17
TORSDOF 10
ENDMDL
