MODEL 1
REMARK VINA RESULT:    -7.653      0.000      0.000
REMARK INTER + INTRA:         -11.569
REMARK INTER:                 -11.008
REMARK INTRA:                  -0.561
REMARK UNBOUND:                -0.561
REMARK SMILES O=C([O-])C1=CO[C@@H](O[C@@H]2O[C@H](CO)[C@@H](O)[C@H](O)[C@H]2O)[C@@H]2[C@@H](CO)CC[C@H]12
REMARK SMILES IDX 8 1 7 2 24 3 25 4 21 5 26 6 20 7 4 8 5 9 6 10 22 11 23 12
REMARK SMILES IDX 2 14 1 15 3 16 9 17 18 18 10 19 16 20 11 21 14 22 19 23
REMARK SMILES IDX 17 25 12 27 13 28 15 30
REMARK H PARENT 23 13 19 24 17 26 13 29 15 31
ROOT
ATOM      1  O   UNL     1      18.019  33.435  53.275  1.00  0.00    -0.310 OA
ENDROOT
BRANCH   1   2
ATOM      2  C   UNL     1      16.794  34.030  53.730  1.00  0.00     0.313 C 
ATOM      3  C   UNL     1      16.391  35.716  57.109  1.00  0.00     0.007 C 
ATOM      4  C   UNL     1      17.672  36.357  56.578  1.00  0.00     0.009 C 
ATOM      5  C   UNL     1      15.765  35.042  55.892  1.00  0.00     0.024 C 
ATOM      6  C   UNL     1      18.025  35.629  55.264  1.00  0.00     0.034 C 
ATOM      7  C   UNL     1      17.004  34.472  55.180  1.00  0.00     0.071 C 
ATOM      8  C   UNL     1      17.931  36.528  54.058  1.00  0.00     0.013 C 
ATOM      9  C   UNL     1      17.131  36.249  53.021  1.00  0.00     0.196 C 
ATOM     10  O   UNL     1      16.375  35.112  52.885  1.00  0.00    -0.472 OA
BRANCH   5  11
ATOM     11  C   UNL     1      14.724  34.001  56.282  1.00  0.00     0.160 C 
BRANCH  11  12
ATOM     12  O   UNL     1      14.490  34.015  57.684  1.00  0.00    -0.396 OA
ATOM     13  H   UNL     1      14.088  33.158  57.918  1.00  0.00     0.210 HD
ENDBRANCH  11  12
ENDBRANCH   5  11
BRANCH   8  14
ATOM     14  C   UNL     1      18.791  37.807  54.016  1.00  0.00     0.071 C 
ATOM     15  O   UNL     1      18.304  38.816  54.599  1.00  0.00    -0.545 OA
ATOM     16  O   UNL     1      19.884  37.686  53.392  1.00  0.00    -0.545 OA
ENDBRANCH   8  14
ENDBRANCH   1   2
BRANCH   1  17
ATOM     17  C   UNL     1      17.997  32.015  53.356  1.00  0.00     0.286 C 
ATOM     18  C   UNL     1      18.239  31.668  54.836  1.00  0.00     0.202 C 
ATOM     19  O   UNL     1      16.723  31.528  52.925  1.00  0.00    -0.341 OA
ATOM     20  C   UNL     1      18.115  30.162  55.037  1.00  0.00     0.179 C 
ATOM     21  C   UNL     1      16.618  30.097  53.036  1.00  0.00     0.178 C 
ATOM     22  C   UNL     1      16.778  29.654  54.495  1.00  0.00     0.177 C 
BRANCH  18  23
ATOM     23  O   UNL     1      19.543  32.069  55.284  1.00  0.00    -0.385 OA
ATOM     24  H   UNL     1      19.757  32.898  54.801  1.00  0.00     0.211 HD
ENDBRANCH  18  23
BRANCH  20  25
ATOM     25  O   UNL     1      18.212  29.830  56.433  1.00  0.00    -0.387 OA
ATOM     26  H   UNL     1      18.957  29.193  56.477  1.00  0.00     0.211 HD
ENDBRANCH  20  25
BRANCH  21  27
ATOM     27  C   UNL     1      15.247  29.695  52.481  1.00  0.00     0.191 C 
BRANCH  27  28
ATOM     28  O   UNL     1      15.304  28.360  51.973  1.00  0.00    -0.394 OA
ATOM     29  H   UNL     1      15.142  28.439  51.011  1.00  0.00     0.210 HD
ENDBRANCH  27  28
ENDBRANCH  21  27
BRANCH  22  30
ATOM     30  O   UNL     1      16.734  28.230  54.619  1.00  0.00    -0.387 OA
ATOM     31  H   UNL     1      16.050  27.945  53.977  1.00  0.00     0.211 HD
ENDBRANCH  22  30
ENDBRANCH   1  17
TORSDOF 10
ENDMDL
MODEL 2
REMARK VINA RESULT:    -7.410      2.069      3.131
REMARK INTER + INTRA:         -11.220
REMARK INTER:                 -10.429
REMARK INTRA:                  -0.791
REMARK UNBOUND:                -0.561
REMARK SMILES O=C([O-])C1=CO[C@@H](O[C@@H]2O[C@H](CO)[C@@H](O)[C@H](O)[C@H]2O)[C@@H]2[C@@H](CO)CC[C@H]12
REMARK SMILES IDX 8 1 7 2 24 3 25 4 21 5 26 6 20 7 4 8 5 9 6 10 22 11 23 12
REMARK SMILES IDX 2 14 1 15 3 16 9 17 18 18 10 19 16 20 11 21 14 22 19 23
REMARK SMILES IDX 17 25 12 27 13 28 15 30
REMARK H PARENT 23 13 19 24 17 26 13 29 15 31
ROOT
ATOM      1  O   UNL     1      17.978  31.901  55.382  1.00  0.00    -0.310 OA
ENDROOT
BRANCH   1   2
ATOM      2  C   UNL     1      17.031  32.273  54.370  1.00  0.00     0.313 C 
ATOM      3  C   UNL     1      13.863  34.248  55.066  1.00  0.00     0.007 C 
ATOM      4  C   UNL     1      14.925  35.075  55.788  1.00  0.00     0.009 C 
ATOM      5  C   UNL     1      14.655  33.308  54.163  1.00  0.00     0.024 C 
ATOM      6  C   UNL     1      16.245  34.279  55.706  1.00  0.00     0.034 C 
ATOM      7  C   UNL     1      15.839  32.930  55.070  1.00  0.00     0.071 C 
ATOM      8  C   UNL     1      17.294  34.977  54.880  1.00  0.00     0.013 C 
ATOM      9  C   UNL     1      17.854  34.405  53.806  1.00  0.00     0.196 C 
ATOM     10  O   UNL     1      17.616  33.125  53.374  1.00  0.00    -0.472 OA
BRANCH   5  11
ATOM     11  C   UNL     1      13.820  32.127  53.687  1.00  0.00     0.160 C 
BRANCH  11  12
ATOM     12  O   UNL     1      14.126  31.797  52.338  1.00  0.00    -0.396 OA
ATOM     13  H   UNL     1      14.856  32.379  52.059  1.00  0.00     0.210 HD
ENDBRANCH  11  12
ENDBRANCH   5  11
BRANCH   8  14
ATOM     14  C   UNL     1      17.742  36.394  55.291  1.00  0.00     0.071 C 
ATOM     15  O   UNL     1      18.480  36.462  56.314  1.00  0.00    -0.545 OA
ATOM     16  O   UNL     1      17.306  37.320  54.549  1.00  0.00    -0.545 OA
ENDBRANCH   8  14
ENDBRANCH   1   2
BRANCH   1  17
ATOM     17  C   UNL     1      18.443  30.565  55.227  1.00  0.00     0.286 C 
ATOM     18  C   UNL     1      17.243  29.656  55.547  1.00  0.00     0.202 C 
ATOM     19  O   UNL     1      18.885  30.362  53.882  1.00  0.00    -0.341 OA
ATOM     20  C   UNL     1      17.619  28.201  55.291  1.00  0.00     0.179 C 
ATOM     21  C   UNL     1      19.317  29.010  53.645  1.00  0.00     0.178 C 
ATOM     22  C   UNL     1      18.164  28.025  53.874  1.00  0.00     0.177 C 
BRANCH  18  23
ATOM     23  O   UNL     1      16.821  29.771  56.915  1.00  0.00    -0.385 OA
ATOM     24  H   UNL     1      17.242  30.588  57.265  1.00  0.00     0.211 HD
ENDBRANCH  18  23
BRANCH  20  25
ATOM     25  O   UNL     1      16.475  27.347  55.463  1.00  0.00    -0.387 OA
ATOM     26  H   UNL     1      15.767  27.787  54.944  1.00  0.00     0.211 HD
ENDBRANCH  20  25
BRANCH  21  27
ATOM     27  C   UNL     1      19.831  28.940  52.203  1.00  0.00     0.191 C 
BRANCH  27  28
ATOM     28  O   UNL     1      21.226  29.249  52.171  1.00  0.00    -0.394 OA
ATOM     29  H   UNL     1      21.540  28.950  51.294  1.00  0.00     0.210 HD
ENDBRANCH  27  28
ENDBRANCH  21  27
BRANCH  22  30
ATOM     30  O   UNL     1      18.589  26.671  53.699  1.00  0.00    -0.387 OA
ATOM     31  H   UNL     1      17.790  26.133  53.882  1.00  0.00     0.211 HD
ENDBRANCH  22  30
ENDBRANCH   1  17
TORSDOF 10
ENDMDL
MODEL 3
REMARK VINA RESULT:    -7.342      9.834     13.120
REMARK INTER + INTRA:         -11.122
REMARK INTER:                 -10.261
REMARK INTRA:                  -0.861
REMARK UNBOUND:                -0.561
REMARK SMILES O=C([O-])C1=CO[C@@H](O[C@@H]2O[C@H](CO)[C@@H](O)[C@H](O)[C@H]2O)[C@@H]2[C@@H](CO)CC[C@H]12
REMARK SMILES IDX 8 1 7 2 24 3 25 4 21 5 26 6 20 7 4 8 5 9 6 10 22 11 23 12
REMARK SMILES IDX 2 14 1 15 3 16 9 17 18 18 10 19 16 20 11 21 14 22 19 23
REMARK SMILES IDX 17 25 12 27 13 28 15 30
REMARK H PARENT 23 13 19 24 17 26 13 29 15 31
ROOT
ATOM      1  O   UNL     1       6.652  39.304  56.921  1.00  0.00    -0.310 OA
ENDROOT
BRANCH   1   2
ATOM      2  C   UNL     1       5.367  38.963  56.380  1.00  0.00     0.313 C 
ATOM      3  C   UNL     1       3.657  35.620  56.946  1.00  0.00     0.007 C 
ATOM      4  C   UNL     1       4.066  36.017  58.362  1.00  0.00     0.009 C 
ATOM      5  C   UNL     1       3.806  36.899  56.128  1.00  0.00     0.024 C 
ATOM      6  C   UNL     1       4.916  37.300  58.239  1.00  0.00     0.034 C 
ATOM      7  C   UNL     1       5.097  37.495  56.716  1.00  0.00     0.071 C 
ATOM      8  C   UNL     1       4.255  38.498  58.868  1.00  0.00     0.013 C 
ATOM      9  C   UNL     1       3.985  39.611  58.172  1.00  0.00     0.196 C 
ATOM     10  O   UNL     1       4.331  39.832  56.864  1.00  0.00    -0.472 OA
BRANCH   5  11
ATOM     11  C   UNL     1       3.861  36.623  54.632  1.00  0.00     0.160 C 
BRANCH  11  12
ATOM     12  O   UNL     1       3.299  37.701  53.894  1.00  0.00    -0.396 OA
ATOM     13  H   UNL     1       3.658  38.525  54.270  1.00  0.00     0.210 HD
ENDBRANCH  11  12
ENDBRANCH   5  11
BRANCH   8  14
ATOM     14  C   UNL     1       3.882  38.443  60.363  1.00  0.00     0.071 C 
ATOM     15  O   UNL     1       4.596  37.686  61.079  1.00  0.00    -0.545 OA
ATOM     16  O   UNL     1       2.897  39.166  60.688  1.00  0.00    -0.545 OA
ENDBRANCH   8  14
ENDBRANCH   1   2
BRANCH   1  17
ATOM     17  C   UNL     1       7.722  38.700  56.204  1.00  0.00     0.286 C 
ATOM     18  C   UNL     1       8.440  39.844  55.467  1.00  0.00     0.202 C 
ATOM     19  O   UNL     1       8.610  38.052  57.120  1.00  0.00    -0.341 OA
ATOM     20  C   UNL     1       9.678  39.301  54.761  1.00  0.00     0.179 C 
ATOM     21  C   UNL     1       9.746  37.467  56.459  1.00  0.00     0.178 C 
ATOM     22  C   UNL     1      10.572  38.544  55.745  1.00  0.00     0.177 C 
BRANCH  18  23
ATOM     23  O   UNL     1       7.605  40.466  54.479  1.00  0.00    -0.385 OA
ATOM     24  H   UNL     1       6.678  40.317  54.769  1.00  0.00     0.211 HD
ENDBRANCH  18  23
BRANCH  20  25
ATOM     25  O   UNL     1      10.433  40.373  54.172  1.00  0.00    -0.387 OA
ATOM     26  H   UNL     1      10.697  40.930  54.936  1.00  0.00     0.211 HD
ENDBRANCH  20  25
BRANCH  21  27
ATOM     27  C   UNL     1      10.576  36.747  57.527  1.00  0.00     0.191 C 
BRANCH  27  28
ATOM     28  O   UNL     1      11.682  37.567  57.913  1.00  0.00    -0.394 OA
ATOM     29  H   UNL     1      12.476  37.007  57.797  1.00  0.00     0.210 HD
ENDBRANCH  27  28
ENDBRANCH  21  27
BRANCH  22  30
ATOM     30  O   UNL     1      11.674  37.974  55.034  1.00  0.00    -0.387 OA
ATOM     31  H   UNL     1      11.612  37.011  55.206  1.00  0.00     0.211 HD
ENDBRANCH  22  30
ENDBRANCH   1  17
TORSDOF 10
ENDMDL
MODEL 4
REMARK VINA RESULT:    -7.314      1.500      1.839
REMARK INTER + INTRA:         -11.082
REMARK INTER:                 -10.120
REMARK INTRA:                  -0.962
REMARK UNBOUND:                -0.561
REMARK SMILES O=C([O-])C1=CO[C@@H](O[C@@H]2O[C@H](CO)[C@@H](O)[C@H](O)[C@H]2O)[C@@H]2[C@@H](CO)CC[C@H]12
REMARK SMILES IDX 8 1 7 2 24 3 25 4 21 5 26 6 20 7 4 8 5 9 6 10 22 11 23 12
REMARK SMILES IDX 2 14 1 15 3 16 9 17 18 18 10 19 16 20 11 21 14 22 19 23
REMARK SMILES IDX 17 25 12 27 13 28 15 30
REMARK H PARENT 23 13 19 24 17 26 13 29 15 31
ROOT
ATOM      1  O   UNL     1      17.436  32.764  53.627  1.00  0.00    -0.310 OA
ENDROOT
BRANCH   1   2
ATOM      2  C   UNL     1      16.253  33.498  53.976  1.00  0.00     0.313 C 
ATOM      3  C   UNL     1      15.904  35.555  57.149  1.00  0.00     0.007 C 
ATOM      4  C   UNL     1      17.246  36.034  56.600  1.00  0.00     0.009 C 
ATOM      5  C   UNL     1      15.256  34.810  55.988  1.00  0.00     0.024 C 
ATOM      6  C   UNL     1      17.572  35.146  55.379  1.00  0.00     0.034 C 
ATOM      7  C   UNL     1      16.461  34.072  55.380  1.00  0.00     0.071 C 
ATOM      8  C   UNL     1      17.583  35.919  54.085  1.00  0.00     0.013 C 
ATOM      9  C   UNL     1      16.789  35.597  53.056  1.00  0.00     0.196 C 
ATOM     10  O   UNL     1      15.946  34.516  53.011  1.00  0.00    -0.472 OA
BRANCH   5  11
ATOM     11  C   UNL     1      14.123  33.901  56.446  1.00  0.00     0.160 C 
BRANCH  11  12
ATOM     12  O   UNL     1      14.613  32.611  56.792  1.00  0.00    -0.396 OA
ATOM     13  H   UNL     1      14.622  32.558  57.765  1.00  0.00     0.210 HD
ENDBRANCH  11  12
ENDBRANCH   5  11
BRANCH   8  14
ATOM     14  C   UNL     1      18.546  37.114  53.941  1.00  0.00     0.071 C 
ATOM     15  O   UNL     1      18.049  38.251  54.175  1.00  0.00    -0.545 OA
ATOM     16  O   UNL     1      19.723  36.804  53.599  1.00  0.00    -0.545 OA
ENDBRANCH   8  14
ENDBRANCH   1   2
BRANCH   1  17
ATOM     17  C   UNL     1      17.236  31.356  53.675  1.00  0.00     0.286 C 
ATOM     18  C   UNL     1      18.640  30.730  53.766  1.00  0.00     0.202 C 
ATOM     19  O   UNL     1      16.458  31.020  54.827  1.00  0.00    -0.341 OA
ATOM     20  C   UNL     1      18.516  29.220  53.941  1.00  0.00     0.179 C 
ATOM     21  C   UNL     1      16.267  29.600  54.963  1.00  0.00     0.178 C 
ATOM     22  C   UNL     1      17.614  28.886  55.129  1.00  0.00     0.177 C 
BRANCH  18  23
ATOM     23  O   UNL     1      19.424  30.977  52.589  1.00  0.00    -0.385 OA
ATOM     24  H   UNL     1      18.861  31.516  51.991  1.00  0.00     0.211 HD
ENDBRANCH  18  23
BRANCH  20  25
ATOM     25  O   UNL     1      19.811  28.631  54.154  1.00  0.00    -0.387 OA
ATOM     26  H   UNL     1      20.238  28.664  53.271  1.00  0.00     0.211 HD
ENDBRANCH  20  25
BRANCH  21  27
ATOM     27  C   UNL     1      15.365  29.374  56.181  1.00  0.00     0.191 C 
BRANCH  27  28
ATOM     28  O   UNL     1      16.161  29.018  57.314  1.00  0.00    -0.394 OA
ATOM     29  H   UNL     1      15.981  28.070  57.473  1.00  0.00     0.210 HD
ENDBRANCH  27  28
ENDBRANCH  21  27
BRANCH  22  30
ATOM     30  O   UNL     1      17.450  27.468  55.209  1.00  0.00    -0.387 OA
ATOM     31  H   UNL     1      18.359  27.116  55.309  1.00  0.00     0.211 HD
ENDBRANCH  22  30
ENDBRANCH   1  17
TORSDOF 10
ENDMDL
MODEL 5
REMARK VINA RESULT:    -7.257      1.822      3.741
REMARK INTER + INTRA:         -11.000
REMARK INTER:                  -9.998
REMARK INTRA:                  -1.002
REMARK UNBOUND:                -0.561
REMARK SMILES O=C([O-])C1=CO[C@@H](O[C@@H]2O[C@H](CO)[C@@H](O)[C@H](O)[C@H]2O)[C@@H]2[C@@H](CO)CC[C@H]12
REMARK SMILES IDX 8 1 7 2 24 3 25 4 21 5 26 6 20 7 4 8 5 9 6 10 22 11 23 12
REMARK SMILES IDX 2 14 1 15 3 16 9 17 18 18 10 19 16 20 11 21 14 22 19 23
REMARK SMILES IDX 17 25 12 27 13 28 15 30
REMARK H PARENT 23 13 19 24 17 26 13 29 15 31
ROOT
ATOM      1  O   UNL     1      17.139  32.852  55.878  1.00  0.00    -0.310 OA
ENDROOT
BRANCH   1   2
ATOM      2  C   UNL     1      17.310  34.241  55.560  1.00  0.00     0.313 C 
ATOM      3  C   UNL     1      14.601  36.403  54.009  1.00  0.00     0.007 C 
ATOM      4  C   UNL     1      13.858  35.730  55.161  1.00  0.00     0.009 C 
ATOM      5  C   UNL     1      16.076  36.154  54.305  1.00  0.00     0.024 C 
ATOM      6  C   UNL     1      14.827  34.698  55.776  1.00  0.00     0.034 C 
ATOM      7  C   UNL     1      16.049  34.709  54.830  1.00  0.00     0.071 C 
ATOM      8  C   UNL     1      15.226  35.045  57.187  1.00  0.00     0.013 C 
ATOM      9  C   UNL     1      16.505  35.216  57.545  1.00  0.00     0.196 C 
ATOM     10  O   UNL     1      17.590  35.030  56.727  1.00  0.00    -0.472 OA
BRANCH   5  11
ATOM     11  C   UNL     1      16.953  36.365  53.078  1.00  0.00     0.160 C 
BRANCH  11  12
ATOM     12  O   UNL     1      16.726  35.350  52.108  1.00  0.00    -0.396 OA
ATOM     13  H   UNL     1      15.830  35.489  51.751  1.00  0.00     0.210 HD
ENDBRANCH  11  12
ENDBRANCH   5  11
BRANCH   8  14
ATOM     14  C   UNL     1      14.124  35.201  58.255  1.00  0.00     0.071 C 
ATOM     15  O   UNL     1      13.751  36.384  58.490  1.00  0.00    -0.545 OA
ATOM     16  O   UNL     1      13.732  34.114  58.769  1.00  0.00    -0.545 OA
ENDBRANCH   8  14
ENDBRANCH   1   2
BRANCH   1  17
ATOM     17  C   UNL     1      17.334  32.007  54.749  1.00  0.00     0.286 C 
ATOM     18  C   UNL     1      18.508  31.079  55.110  1.00  0.00     0.202 C 
ATOM     19  O   UNL     1      16.146  31.249  54.505  1.00  0.00    -0.341 OA
ATOM     20  C   UNL     1      18.712  30.056  53.997  1.00  0.00     0.179 C 
ATOM     21  C   UNL     1      16.299  30.332  53.405  1.00  0.00     0.178 C 
ATOM     22  C   UNL     1      17.408  29.315  53.699  1.00  0.00     0.177 C 
BRANCH  18  23
ATOM     23  O   UNL     1      19.738  31.797  55.283  1.00  0.00    -0.385 OA
ATOM     24  H   UNL     1      20.161  31.836  54.396  1.00  0.00     0.211 HD
ENDBRANCH  18  23
BRANCH  20  25
ATOM     25  O   UNL     1      19.720  29.101  54.370  1.00  0.00    -0.387 OA
ATOM     26  H   UNL     1      20.322  29.072  53.596  1.00  0.00     0.211 HD
ENDBRANCH  20  25
BRANCH  21  27
ATOM     27  C   UNL     1      14.949  29.638  53.198  1.00  0.00     0.191 C 
BRANCH  27  28
ATOM     28  O   UNL     1      14.941  28.960  51.939  1.00  0.00    -0.394 OA
ATOM     29  H   UNL     1      14.396  29.516  51.346  1.00  0.00     0.210 HD
ENDBRANCH  27  28
ENDBRANCH  21  27
BRANCH  22  30
ATOM     30  O   UNL     1      17.614  28.430  52.594  1.00  0.00    -0.387 OA
ATOM     31  H   UNL     1      16.721  28.293  52.214  1.00  0.00     0.211 HD
ENDBRANCH  22  30
ENDBRANCH   1  17
TORSDOF 10
ENDMDL
MODEL 6
REMARK VINA RESULT:    -7.250      1.788      2.274
REMARK INTER + INTRA:         -10.989
REMARK INTER:                  -9.881
REMARK INTRA:                  -1.108
REMARK UNBOUND:                -0.561
REMARK SMILES O=C([O-])C1=CO[C@@H](O[C@@H]2O[C@H](CO)[C@@H](O)[C@H](O)[C@H]2O)[C@@H]2[C@@H](CO)CC[C@H]12
REMARK SMILES IDX 8 1 7 2 24 3 25 4 21 5 26 6 20 7 4 8 5 9 6 10 22 11 23 12
REMARK SMILES IDX 2 14 1 15 3 16 9 17 18 18 10 19 16 20 11 21 14 22 19 23
REMARK SMILES IDX 17 25 12 27 13 28 15 30
REMARK H PARENT 23 13 19 24 17 26 13 29 15 31
ROOT
ATOM      1  O   UNL     1      17.787  32.022  53.523  1.00  0.00    -0.310 OA
ENDROOT
BRANCH   1   2
ATOM      2  C   UNL     1      16.486  32.549  53.222  1.00  0.00     0.313 C 
ATOM      3  C   UNL     1      14.136  33.992  55.832  1.00  0.00     0.007 C 
ATOM      4  C   UNL     1      15.449  34.704  56.151  1.00  0.00     0.009 C 
ATOM      5  C   UNL     1      14.352  33.384  54.450  1.00  0.00     0.024 C 
ATOM      6  C   UNL     1      16.529  34.077  55.244  1.00  0.00     0.034 C 
ATOM      7  C   UNL     1      15.809  32.899  54.549  1.00  0.00     0.071 C 
ATOM      8  C   UNL     1      17.079  35.051  54.235  1.00  0.00     0.013 C 
ATOM      9  C   UNL     1      17.027  34.820  52.917  1.00  0.00     0.196 C 
ATOM     10  O   UNL     1      16.554  33.673  52.331  1.00  0.00    -0.472 OA
BRANCH   5  11
ATOM     11  C   UNL     1      13.341  32.290  54.138  1.00  0.00     0.160 C 
BRANCH  11  12
ATOM     12  O   UNL     1      13.189  32.122  52.734  1.00  0.00    -0.396 OA
ATOM     13  H   UNL     1      13.780  31.396  52.465  1.00  0.00     0.210 HD
ENDBRANCH  11  12
ENDBRANCH   5  11
BRANCH   8  14
ATOM     14  C   UNL     1      17.731  36.355  54.740  1.00  0.00     0.071 C 
ATOM     15  O   UNL     1      18.653  36.214  55.591  1.00  0.00    -0.545 OA
ATOM     16  O   UNL     1      17.252  37.411  54.237  1.00  0.00    -0.545 OA
ENDBRANCH   8  14
ENDBRANCH   1   2
BRANCH   1  17
ATOM     17  C   UNL     1      17.874  30.622  53.285  1.00  0.00     0.286 C 
ATOM     18  C   UNL     1      18.198  29.978  54.645  1.00  0.00     0.202 C 
ATOM     19  O   UNL     1      16.625  30.140  52.782  1.00  0.00    -0.341 OA
ATOM     20  C   UNL     1      18.195  28.460  54.507  1.00  0.00     0.179 C 
ATOM     21  C   UNL     1      16.632  28.716  52.572  1.00  0.00     0.178 C 
ATOM     22  C   UNL     1      16.881  27.976  53.892  1.00  0.00     0.177 C 
BRANCH  18  23
ATOM     23  O   UNL     1      19.483  30.375  55.145  1.00  0.00    -0.385 OA
ATOM     24  H   UNL     1      19.957  29.546  55.376  1.00  0.00     0.211 HD
ENDBRANCH  18  23
BRANCH  20  25
ATOM     25  O   UNL     1      18.369  27.837  55.791  1.00  0.00    -0.387 OA
ATOM     26  H   UNL     1      17.592  27.242  55.877  1.00  0.00     0.211 HD
ENDBRANCH  20  25
BRANCH  21  27
ATOM     27  C   UNL     1      15.276  28.336  51.969  1.00  0.00     0.191 C 
BRANCH  27  28
ATOM     28  O   UNL     1      14.394  29.460  52.016  1.00  0.00    -0.394 OA
ATOM     29  H   UNL     1      14.864  30.182  51.553  1.00  0.00     0.210 HD
ENDBRANCH  27  28
ENDBRANCH  21  27
BRANCH  22  30
ATOM     30  O   UNL     1      16.948  26.561  53.695  1.00  0.00    -0.387 OA
ATOM     31  H   UNL     1      17.000  26.186  54.599  1.00  0.00     0.211 HD
ENDBRANCH  22  30
ENDBRANCH   1  17
TORSDOF 10
ENDMDL
MODEL 7
REMARK VINA RESULT:    -7.223      1.953      6.621
REMARK INTER + INTRA:         -10.951
REMARK INTER:                 -10.060
REMARK INTRA:                  -0.890
REMARK UNBOUND:                -0.561
REMARK SMILES O=C([O-])C1=CO[C@@H](O[C@@H]2O[C@H](CO)[C@@H](O)[C@H](O)[C@H]2O)[C@@H]2[C@@H](CO)CC[C@H]12
REMARK SMILES IDX 8 1 7 2 24 3 25 4 21 5 26 6 20 7 4 8 5 9 6 10 22 11 23 12
REMARK SMILES IDX 2 14 1 15 3 16 9 17 18 18 10 19 16 20 11 21 14 22 19 23
REMARK SMILES IDX 17 25 12 27 13 28 15 30
REMARK H PARENT 23 13 19 24 17 26 13 29 15 31
ROOT
ATOM      1  O   UNL     1      17.699  31.943  54.884  1.00  0.00    -0.310 OA
ENDROOT
BRANCH   1   2
ATOM      2  C   UNL     1      16.472  31.221  55.071  1.00  0.00     0.313 C 
ATOM      3  C   UNL     1      14.679  29.348  52.297  1.00  0.00     0.007 C 
ATOM      4  C   UNL     1      16.115  28.850  52.148  1.00  0.00     0.009 C 
ATOM      5  C   UNL     1      14.644  30.020  53.666  1.00  0.00     0.024 C 
ATOM      6  C   UNL     1      16.977  29.668  53.133  1.00  0.00     0.034 C 
ATOM      7  C   UNL     1      16.008  30.731  53.698  1.00  0.00     0.071 C 
ATOM      8  C   UNL     1      17.561  28.822  54.235  1.00  0.00     0.013 C 
ATOM      9  C   UNL     1      17.329  29.076  55.529  1.00  0.00     0.196 C 
ATOM     10  O   UNL     1      16.620  30.146  56.012  1.00  0.00    -0.472 OA
BRANCH   5  11
ATOM     11  C   UNL     1      13.445  30.944  53.825  1.00  0.00     0.160 C 
BRANCH  11  12
ATOM     12  O   UNL     1      13.435  31.944  52.814  1.00  0.00    -0.396 OA
ATOM     13  H   UNL     1      14.326  31.965  52.421  1.00  0.00     0.210 HD
ENDBRANCH  11  12
ENDBRANCH   5  11
BRANCH   8  14
ATOM     14  C   UNL     1      18.461  27.628  53.858  1.00  0.00     0.071 C 
ATOM     15  O   UNL     1      19.691  27.886  53.732  1.00  0.00    -0.545 OA
ATOM     16  O   UNL     1      17.849  26.532  53.714  1.00  0.00    -0.545 OA
ENDBRANCH   8  14
ENDBRANCH   1   2
BRANCH   1  17
ATOM     17  C   UNL     1      17.561  33.331  55.169  1.00  0.00     0.286 C 
ATOM     18  C   UNL     1      18.674  34.041  54.376  1.00  0.00     0.202 C 
ATOM     19  O   UNL     1      16.272  33.783  54.746  1.00  0.00    -0.341 OA
ATOM     20  C   UNL     1      18.529  35.550  54.531  1.00  0.00     0.179 C 
ATOM     21  C   UNL     1      16.092  35.196  54.957  1.00  0.00     0.178 C 
ATOM     22  C   UNL     1      17.118  35.999  54.150  1.00  0.00     0.177 C 
BRANCH  18  23
ATOM     23  O   UNL     1      19.985  33.672  54.829  1.00  0.00    -0.385 OA
ATOM     24  H   UNL     1      20.057  33.991  55.756  1.00  0.00     0.211 HD
ENDBRANCH  18  23
BRANCH  20  25
ATOM     25  O   UNL     1      19.480  36.235  53.697  1.00  0.00    -0.387 OA
ATOM     26  H   UNL     1      19.723  37.033  54.215  1.00  0.00     0.211 HD
ENDBRANCH  20  25
BRANCH  21  27
ATOM     27  C   UNL     1      14.659  35.542  54.537  1.00  0.00     0.191 C 
BRANCH  27  28
ATOM     28  O   UNL     1      14.055  34.411  53.903  1.00  0.00    -0.394 OA
ATOM     29  H   UNL     1      14.203  33.660  54.512  1.00  0.00     0.210 HD
ENDBRANCH  27  28
ENDBRANCH  21  27
BRANCH  22  30
ATOM     30  O   UNL     1      16.992  37.404  54.391  1.00  0.00    -0.387 OA
ATOM     31  H   UNL     1      16.445  37.470  55.202  1.00  0.00     0.211 HD
ENDBRANCH  22  30
ENDBRANCH   1  17
TORSDOF 10
ENDMDL
MODEL 8
REMARK VINA RESULT:    -7.149      1.973      7.001
REMARK INTER + INTRA:         -10.843
REMARK INTER:                  -9.738
REMARK INTRA:                  -1.105
REMARK UNBOUND:                -0.561
REMARK SMILES O=C([O-])C1=CO[C@@H](O[C@@H]2O[C@H](CO)[C@@H](O)[C@H](O)[C@H]2O)[C@@H]2[C@@H](CO)CC[C@H]12
REMARK SMILES IDX 8 1 7 2 24 3 25 4 21 5 26 6 20 7 4 8 5 9 6 10 22 11 23 12
REMARK SMILES IDX 2 14 1 15 3 16 9 17 18 18 10 19 16 20 11 21 14 22 19 23
REMARK SMILES IDX 17 25 12 27 13 28 15 30
REMARK H PARENT 23 13 19 24 17 26 13 29 15 31
ROOT
ATOM      1  O   UNL     1      16.304  31.974  53.579  1.00  0.00    -0.310 OA
ENDROOT
BRANCH   1   2
ATOM      2  C   UNL     1      15.019  31.336  53.635  1.00  0.00     0.313 C 
ATOM      3  C   UNL     1      14.021  28.400  51.444  1.00  0.00     0.007 C 
ATOM      4  C   UNL     1      15.378  27.954  51.983  1.00  0.00     0.009 C 
ATOM      5  C   UNL     1      13.621  29.575  52.330  1.00  0.00     0.024 C 
ATOM      6  C   UNL     1      15.960  29.146  52.772  1.00  0.00     0.034 C 
ATOM      7  C   UNL     1      14.966  30.300  52.510  1.00  0.00     0.071 C 
ATOM      8  C   UNL     1      16.088  28.861  54.246  1.00  0.00     0.013 C 
ATOM      9  C   UNL     1      15.486  29.617  55.174  1.00  0.00     0.196 C 
ATOM     10  O   UNL     1      14.763  30.755  54.923  1.00  0.00    -0.472 OA
BRANCH   5  11
ATOM     11  C   UNL     1      12.524  30.423  51.702  1.00  0.00     0.160 C 
BRANCH  11  12
ATOM     12  O   UNL     1      13.073  31.405  50.832  1.00  0.00    -0.396 OA
ATOM     13  H   UNL     1      12.902  31.109  49.920  1.00  0.00     0.210 HD
ENDBRANCH  11  12
ENDBRANCH   5  11
BRANCH   8  14
ATOM     14  C   UNL     1      16.946  27.663  54.700  1.00  0.00     0.071 C 
ATOM     15  O   UNL     1      18.120  27.622  54.237  1.00  0.00    -0.545 OA
ATOM     16  O   UNL     1      16.360  26.862  55.483  1.00  0.00    -0.545 OA
ENDBRANCH   8  14
ENDBRANCH   1   2
BRANCH   1  17
ATOM     17  C   UNL     1      16.323  33.219  54.267  1.00  0.00     0.286 C 
ATOM     18  C   UNL     1      17.440  33.106  55.321  1.00  0.00     0.202 C 
ATOM     19  O   UNL     1      16.604  34.275  53.344  1.00  0.00    -0.341 OA
ATOM     20  C   UNL     1      17.611  34.444  56.032  1.00  0.00     0.179 C 
ATOM     21  C   UNL     1      16.692  35.558  53.991  1.00  0.00     0.178 C 
ATOM     22  C   UNL     1      17.829  35.569  55.020  1.00  0.00     0.177 C 
BRANCH  18  23
ATOM     23  O   UNL     1      17.153  32.110  56.314  1.00  0.00    -0.385 OA
ATOM     24  H   UNL     1      16.805  31.330  55.829  1.00  0.00     0.211 HD
ENDBRANCH  18  23
BRANCH  20  25
ATOM     25  O   UNL     1      18.732  34.397  56.931  1.00  0.00    -0.387 OA
ATOM     26  H   UNL     1      19.286  35.162  56.664  1.00  0.00     0.211 HD
ENDBRANCH  20  25
BRANCH  21  27
ATOM     27  C   UNL     1      16.922  36.607  52.897  1.00  0.00     0.191 C 
BRANCH  27  28
ATOM     28  O   UNL     1      18.293  37.012  52.896  1.00  0.00    -0.394 OA
ATOM     29  H   UNL     1      18.458  37.379  53.788  1.00  0.00     0.210 HD
ENDBRANCH  27  28
ENDBRANCH  21  27
BRANCH  22  30
ATOM     30  O   UNL     1      17.896  36.818  55.714  1.00  0.00    -0.387 OA
ATOM     31  H   UNL     1      18.771  36.811  56.155  1.00  0.00     0.211 HD
ENDBRANCH  22  30
ENDBRANCH   1  17
TORSDOF 10
ENDMDL
MODEL 9
REMARK VINA RESULT:    -7.119      2.584      6.410
REMARK INTER + INTRA:         -10.800
REMARK INTER:                  -9.738
REMARK INTRA:                  -1.062
REMARK UNBOUND:                -0.561
REMARK SMILES O=C([O-])C1=CO[C@@H](O[C@@H]2O[C@H](CO)[C@@H](O)[C@H](O)[C@H]2O)[C@@H]2[C@@H](CO)CC[C@H]12
REMARK SMILES IDX 8 1 7 2 24 3 25 4 21 5 26 6 20 7 4 8 5 9 6 10 22 11 23 12
REMARK SMILES IDX 2 14 1 15 3 16 9 17 18 18 10 19 16 20 11 21 14 22 19 23
REMARK SMILES IDX 17 25 12 27 13 28 15 30
REMARK H PARENT 23 13 19 24 17 26 13 29 15 31
ROOT
ATOM      1  O   UNL     1      14.904  33.831  55.821  1.00  0.00    -0.310 OA
ENDROOT
BRANCH   1   2
ATOM      2  C   UNL     1      15.408  34.392  54.599  1.00  0.00     0.313 C 
ATOM      3  C   UNL     1      19.029  35.411  54.077  1.00  0.00     0.007 C 
ATOM      4  C   UNL     1      19.169  34.006  54.660  1.00  0.00     0.009 C 
ATOM      5  C   UNL     1      17.562  35.516  53.673  1.00  0.00     0.024 C 
ATOM      6  C   UNL     1      17.752  33.545  55.062  1.00  0.00     0.034 C 
ATOM      7  C   UNL     1      16.866  34.791  54.838  1.00  0.00     0.071 C 
ATOM      8  C   UNL     1      17.266  32.377  54.243  1.00  0.00     0.013 C 
ATOM      9  C   UNL     1      16.139  32.431  53.521  1.00  0.00     0.196 C 
ATOM     10  O   UNL     1      15.265  33.488  53.493  1.00  0.00    -0.472 OA
BRANCH   5  11
ATOM     11  C   UNL     1      17.121  36.960  53.472  1.00  0.00     0.160 C 
BRANCH  11  12
ATOM     12  O   UNL     1      17.913  37.847  54.252  1.00  0.00    -0.396 OA
ATOM     13  H   UNL     1      18.523  37.301  54.780  1.00  0.00     0.210 HD
ENDBRANCH  11  12
ENDBRANCH   5  11
BRANCH   8  14
ATOM     14  C   UNL     1      18.093  31.075  54.241  1.00  0.00     0.071 C 
ATOM     15  O   UNL     1      18.258  30.528  55.368  1.00  0.00    -0.545 OA
ATOM     16  O   UNL     1      18.511  30.718  53.103  1.00  0.00    -0.545 OA
ENDBRANCH   8  14
ENDBRANCH   1   2
BRANCH   1  17
ATOM     17  C   UNL     1      13.676  34.425  56.226  1.00  0.00     0.286 C 
ATOM     18  C   UNL     1      13.992  35.232  57.498  1.00  0.00     0.202 C 
ATOM     19  O   UNL     1      13.192  35.283  55.189  1.00  0.00    -0.341 OA
ATOM     20  C   UNL     1      12.751  36.001  57.938  1.00  0.00     0.179 C 
ATOM     21  C   UNL     1      11.976  35.959  55.562  1.00  0.00     0.178 C 
ATOM     22  C   UNL     1      12.205  36.849  56.789  1.00  0.00     0.177 C 
BRANCH  18  23
ATOM     23  O   UNL     1      14.404  34.393  58.587  1.00  0.00    -0.385 OA
ATOM     24  H   UNL     1      14.379  34.956  59.393  1.00  0.00     0.211 HD
ENDBRANCH  18  23
BRANCH  20  25
ATOM     25  O   UNL     1      13.059  36.859  59.050  1.00  0.00    -0.387 OA
ATOM     26  H   UNL     1      12.457  37.626  58.935  1.00  0.00     0.211 HD
ENDBRANCH  20  25
BRANCH  21  27
ATOM     27  C   UNL     1      11.524  36.784  54.352  1.00  0.00     0.191 C 
BRANCH  27  28
ATOM     28  O   UNL     1      12.021  38.120  54.465  1.00  0.00    -0.394 OA
ATOM     29  H   UNL     1      11.986  38.489  53.560  1.00  0.00     0.210 HD
ENDBRANCH  27  28
ENDBRANCH  21  27
BRANCH  22  30
ATOM     30  O   UNL     1      10.995  37.485  57.209  1.00  0.00    -0.387 OA
ATOM     31  H   UNL     1      11.242  38.423  57.350  1.00  0.00     0.211 HD
ENDBRANCH  22  30
ENDBRANCH   1  17
TORSDOF 10
ENDMDL
