MODEL 1
REMARK VINA RESULT:    -5.711      0.000      0.000
REMARK INTER + INTRA:          -6.680
REMARK INTER:                  -6.545
REMARK INTRA:                  -0.135
REMARK UNBOUND:                -0.135
REMARK SMILES O=C([O-])/C=C/c1ccc(O)cc1
REMARK SMILES IDX 7 1 8 2 9 3 11 4 12 5 6 6 5 7 4 8 2 9 1 10 3 11 10 12
REMARK H PARENT 10 13
ROOT
ATOM      1  C   UNL     1      17.143  33.896  53.266  1.00  0.00     0.012 A 
ATOM      2  C   UNL     1      16.766  32.580  52.987  1.00  0.00     0.047 A 
ATOM      3  C   UNL     1      17.527  31.527  53.479  1.00  0.00     0.115 A 
ATOM      4  C   UNL     1      18.663  31.768  54.245  1.00  0.00     0.047 A 
ATOM      5  C   UNL     1      19.036  33.087  54.522  1.00  0.00     0.012 A 
ATOM      6  C   UNL     1      18.275  34.164  54.048  1.00  0.00    -0.025 A 
ENDROOT
BRANCH   6   7
ATOM      7  C   UNL     1      18.728  35.530  54.344  1.00  0.00     0.010 C 
ATOM      8  C   UNL     1      18.536  36.596  53.550  1.00  0.00     0.025 C 
BRANCH   8   9
ATOM      9  C   UNL     1      19.026  37.995  53.928  1.00  0.00     0.064 C 
ATOM     10  O   UNL     1      20.131  38.306  53.398  1.00  0.00    -0.545 OA
ATOM     11  O   UNL     1      18.288  38.660  54.706  1.00  0.00    -0.545 OA
ENDBRANCH   8   9
ENDBRANCH   6   7
BRANCH   3  12
ATOM     12  O   UNL     1      17.128  30.256  53.185  1.00  0.00    -0.508 OA
ATOM     13  H   UNL     1      17.523  29.660  53.842  1.00  0.00     0.293 HD
ENDBRANCH   3  12
TORSDOF 3
ENDMDL
MODEL 2
REMARK VINA RESULT:    -5.487      1.440      5.816
REMARK INTER + INTRA:          -6.424
REMARK INTER:                  -6.296
REMARK INTRA:                  -0.129
REMARK UNBOUND:                -0.135
REMARK SMILES O=C([O-])/C=C/c1ccc(O)cc1
REMARK SMILES IDX 7 1 8 2 9 3 11 4 12 5 6 6 5 7 4 8 2 9 1 10 3 11 10 12
REMARK H PARENT 10 13
ROOT
ATOM      1  C   UNL     1      18.931  36.145  53.691  1.00  0.00     0.012 A 
ATOM      2  C   UNL     1      19.038  37.509  53.975  1.00  0.00     0.047 A 
ATOM      3  C   UNL     1      18.576  37.998  55.191  1.00  0.00     0.115 A 
ATOM      4  C   UNL     1      18.003  37.144  56.128  1.00  0.00     0.047 A 
ATOM      5  C   UNL     1      17.899  35.779  55.839  1.00  0.00     0.012 A 
ATOM      6  C   UNL     1      18.372  35.263  54.625  1.00  0.00    -0.025 A 
ENDROOT
BRANCH   6   7
ATOM      7  C   UNL     1      18.211  33.827  54.360  1.00  0.00     0.010 C 
ATOM      8  C   UNL     1      19.128  32.885  54.628  1.00  0.00     0.025 C 
BRANCH   8   9
ATOM      9  C   UNL     1      18.887  31.402  54.336  1.00  0.00     0.064 C 
ATOM     10  O   UNL     1      18.716  30.702  55.375  1.00  0.00    -0.545 OA
ATOM     11  O   UNL     1      18.887  31.059  53.122  1.00  0.00    -0.545 OA
ENDBRANCH   8   9
ENDBRANCH   6   7
BRANCH   3  12
ATOM     12  O   UNL     1      18.696  39.334  55.432  1.00  0.00    -0.508 OA
ATOM     13  H   UNL     1      18.488  39.806  54.609  1.00  0.00     0.293 HD
ENDBRANCH   3  12
TORSDOF 3
ENDMDL
MODEL 3
REMARK VINA RESULT:    -5.472     11.568     12.338
REMARK INTER + INTRA:          -6.407
REMARK INTER:                  -6.265
REMARK INTRA:                  -0.142
REMARK UNBOUND:                -0.135
REMARK SMILES O=C([O-])/C=C/c1ccc(O)cc1
REMARK SMILES IDX 7 1 8 2 9 3 11 4 12 5 6 6 5 7 4 8 2 9 1 10 3 11 10 12
REMARK H PARENT 10 13
ROOT
ATOM      1  C   UNL     1      10.166  37.678  59.897  1.00  0.00     0.012 A 
ATOM      2  C   UNL     1      10.386  37.320  61.230  1.00  0.00     0.047 A 
ATOM      3  C   UNL     1       9.345  37.408  62.146  1.00  0.00     0.115 A 
ATOM      4  C   UNL     1       8.087  37.852  61.753  1.00  0.00     0.047 A 
ATOM      5  C   UNL     1       7.873  38.210  60.418  1.00  0.00     0.012 A 
ATOM      6  C   UNL     1       8.905  38.115  59.473  1.00  0.00    -0.025 A 
ENDROOT
BRANCH   6   7
ATOM      7  C   UNL     1       8.633  38.531  58.091  1.00  0.00     0.010 C 
ATOM      8  C   UNL     1       8.004  39.661  57.734  1.00  0.00     0.025 C 
BRANCH   8   9
ATOM      9  C   UNL     1       7.765  40.038  56.271  1.00  0.00     0.064 C 
ATOM     10  O   UNL     1       8.309  41.128  55.932  1.00  0.00    -0.545 OA
ATOM     11  O   UNL     1       7.071  39.236  55.588  1.00  0.00    -0.545 OA
ENDBRANCH   8   9
ENDBRANCH   6   7
BRANCH   3  12
ATOM     12  O   UNL     1       9.597  37.050  63.438  1.00  0.00    -0.508 OA
ATOM     13  H   UNL     1       8.801  36.617  63.788  1.00  0.00     0.293 HD
ENDBRANCH   3  12
TORSDOF 3
ENDMDL
MODEL 4
REMARK VINA RESULT:    -5.455      3.147      4.305
REMARK INTER + INTRA:          -6.388
REMARK INTER:                  -6.241
REMARK INTRA:                  -0.146
REMARK UNBOUND:                -0.135
REMARK SMILES O=C([O-])/C=C/c1ccc(O)cc1
REMARK SMILES IDX 7 1 8 2 9 3 11 4 12 5 6 6 5 7 4 8 2 9 1 10 3 11 10 12
REMARK H PARENT 10 13
ROOT
ATOM      1  C   UNL     1      17.070  29.144  53.018  1.00  0.00     0.012 A 
ATOM      2  C   UNL     1      17.826  27.974  52.905  1.00  0.00     0.047 A 
ATOM      3  C   UNL     1      19.192  28.057  52.670  1.00  0.00     0.115 A 
ATOM      4  C   UNL     1      19.817  29.294  52.543  1.00  0.00     0.047 A 
ATOM      5  C   UNL     1      19.057  30.461  52.657  1.00  0.00     0.012 A 
ATOM      6  C   UNL     1      17.679  30.401  52.908  1.00  0.00    -0.025 A 
ENDROOT
BRANCH   6   7
ATOM      7  C   UNL     1      16.922  31.657  52.989  1.00  0.00     0.010 C 
ATOM      8  C   UNL     1      17.459  32.869  53.202  1.00  0.00     0.025 C 
BRANCH   8   9
ATOM      9  C   UNL     1      16.610  34.140  53.263  1.00  0.00     0.064 C 
ATOM     10  O   UNL     1      16.689  34.853  52.222  1.00  0.00    -0.545 OA
ATOM     11  O   UNL     1      15.945  34.324  54.319  1.00  0.00    -0.545 OA
ENDBRANCH   8   9
ENDBRANCH   6   7
BRANCH   3  12
ATOM     12  O   UNL     1      19.897  26.894  52.566  1.00  0.00    -0.508 OA
ATOM     13  H   UNL     1      19.727  26.369  53.365  1.00  0.00     0.293 HD
ENDBRANCH   3  12
TORSDOF 3
ENDMDL
MODEL 5
REMARK VINA RESULT:    -5.413      2.804      3.973
REMARK INTER + INTRA:          -6.339
REMARK INTER:                  -6.204
REMARK INTRA:                  -0.136
REMARK UNBOUND:                -0.135
REMARK SMILES O=C([O-])/C=C/c1ccc(O)cc1
REMARK SMILES IDX 7 1 8 2 9 3 11 4 12 5 6 6 5 7 4 8 2 9 1 10 3 11 10 12
REMARK H PARENT 10 13
ROOT
ATOM      1  C   UNL     1      16.584  29.665  52.960  1.00  0.00     0.012 A 
ATOM      2  C   UNL     1      17.022  28.345  53.104  1.00  0.00     0.047 A 
ATOM      3  C   UNL     1      18.383  28.072  53.133  1.00  0.00     0.115 A 
ATOM      4  C   UNL     1      19.317  29.097  53.017  1.00  0.00     0.047 A 
ATOM      5  C   UNL     1      18.873  30.415  52.873  1.00  0.00     0.012 A 
ATOM      6  C   UNL     1      17.504  30.716  52.856  1.00  0.00    -0.025 A 
ENDROOT
BRANCH   6   7
ATOM      7  C   UNL     1      17.093  32.114  52.673  1.00  0.00     0.010 C 
ATOM      8  C   UNL     1      17.343  33.112  53.535  1.00  0.00     0.025 C 
BRANCH   8   9
ATOM      9  C   UNL     1      16.894  34.551  53.274  1.00  0.00     0.064 C 
ATOM     10  O   UNL     1      16.835  35.261  54.318  1.00  0.00    -0.545 OA
ATOM     11  O   UNL     1      16.642  34.854  52.076  1.00  0.00    -0.545 OA
ENDBRANCH   8   9
ENDBRANCH   6   7
BRANCH   3  12
ATOM     12  O   UNL     1      18.773  26.773  53.275  1.00  0.00    -0.508 OA
ATOM     13  H   UNL     1      18.696  26.539  54.214  1.00  0.00     0.293 HD
ENDBRANCH   3  12
TORSDOF 3
ENDMDL
MODEL 6
REMARK VINA RESULT:    -5.392     12.297     13.504
REMARK INTER + INTRA:          -6.315
REMARK INTER:                  -6.171
REMARK INTRA:                  -0.144
REMARK UNBOUND:                -0.135
REMARK SMILES O=C([O-])/C=C/c1ccc(O)cc1
REMARK SMILES IDX 7 1 8 2 9 3 11 4 12 5 6 6 5 7 4 8 2 9 1 10 3 11 10 12
REMARK H PARENT 10 13
ROOT
ATOM      1  C   UNL     1       8.610  38.552  56.898  1.00  0.00     0.012 A 
ATOM      2  C   UNL     1       9.620  38.789  55.961  1.00  0.00     0.047 A 
ATOM      3  C   UNL     1       9.475  39.818  55.039  1.00  0.00     0.115 A 
ATOM      4  C   UNL     1       8.335  40.615  55.036  1.00  0.00     0.047 A 
ATOM      5  C   UNL     1       7.327  40.374  55.975  1.00  0.00     0.012 A 
ATOM      6  C   UNL     1       7.458  39.350  56.924  1.00  0.00    -0.025 A 
ENDROOT
BRANCH   6   7
ATOM      7  C   UNL     1       6.357  39.121  57.869  1.00  0.00     0.010 C 
ATOM      8  C   UNL     1       5.052  39.159  57.557  1.00  0.00     0.025 C 
BRANCH   8   9
ATOM      9  C   UNL     1       3.956  38.898  58.593  1.00  0.00     0.064 C 
ATOM     10  O   UNL     1       3.966  39.714  59.558  1.00  0.00    -0.545 OA
ATOM     11  O   UNL     1       3.188  37.923  58.368  1.00  0.00    -0.545 OA
ENDBRANCH   8   9
ENDBRANCH   6   7
BRANCH   3  12
ATOM     12  O   UNL     1      10.481  40.019  54.140  1.00  0.00    -0.508 OA
ATOM     13  H   UNL     1      10.686  40.968  54.128  1.00  0.00     0.293 HD
ENDBRANCH   3  12
TORSDOF 3
ENDMDL
MODEL 7
REMARK VINA RESULT:    -5.334      1.120      5.880
REMARK INTER + INTRA:          -6.248
REMARK INTER:                  -6.113
REMARK INTRA:                  -0.135
REMARK UNBOUND:                -0.135
REMARK SMILES O=C([O-])/C=C/c1ccc(O)cc1
REMARK SMILES IDX 7 1 8 2 9 3 11 4 12 5 6 6 5 7 4 8 2 9 1 10 3 11 10 12
REMARK H PARENT 10 13
ROOT
ATOM      1  C   UNL     1      18.784  34.566  54.201  1.00  0.00     0.012 A 
ATOM      2  C   UNL     1      19.020  35.942  54.147  1.00  0.00     0.047 A 
ATOM      3  C   UNL     1      18.085  36.777  53.549  1.00  0.00     0.115 A 
ATOM      4  C   UNL     1      16.917  36.259  52.999  1.00  0.00     0.047 A 
ATOM      5  C   UNL     1      16.685  34.881  53.056  1.00  0.00     0.012 A 
ATOM      6  C   UNL     1      17.609  34.021  53.668  1.00  0.00    -0.025 A 
ENDROOT
BRANCH   6   7
ATOM      7  C   UNL     1      17.330  32.578  53.673  1.00  0.00     0.010 C 
ATOM      8  C   UNL     1      18.053  31.650  53.029  1.00  0.00     0.025 C 
BRANCH   8   9
ATOM      9  C   UNL     1      17.711  30.159  53.088  1.00  0.00     0.064 C 
ATOM     10  O   UNL     1      18.661  29.437  53.504  1.00  0.00    -0.545 OA
ATOM     11  O   UNL     1      16.548  29.833  52.726  1.00  0.00    -0.545 OA
ENDBRANCH   8   9
ENDBRANCH   6   7
BRANCH   3  12
ATOM     12  O   UNL     1      18.350  38.115  53.515  1.00  0.00    -0.508 OA
ATOM     13  H   UNL     1      18.024  38.462  52.669  1.00  0.00     0.293 HD
ENDBRANCH   3  12
TORSDOF 3
ENDMDL
MODEL 8
REMARK VINA RESULT:    -5.247      3.056      4.167
REMARK INTER + INTRA:          -6.150
REMARK INTER:                  -6.016
REMARK INTRA:                  -0.134
REMARK UNBOUND:                -0.135
REMARK SMILES O=C([O-])/C=C/c1ccc(O)cc1
REMARK SMILES IDX 7 1 8 2 9 3 11 4 12 5 6 6 5 7 4 8 2 9 1 10 3 11 10 12
REMARK H PARENT 10 13
ROOT
ATOM      1  C   UNL     1      16.885  29.921  52.959  1.00  0.00     0.012 A 
ATOM      2  C   UNL     1      16.590  28.616  52.555  1.00  0.00     0.047 A 
ATOM      3  C   UNL     1      17.613  27.681  52.449  1.00  0.00     0.115 A 
ATOM      4  C   UNL     1      18.928  28.031  52.736  1.00  0.00     0.047 A 
ATOM      5  C   UNL     1      19.218  29.338  53.140  1.00  0.00     0.012 A 
ATOM      6  C   UNL     1      18.200  30.294  53.268  1.00  0.00    -0.025 A 
ENDROOT
BRANCH   6   7
ATOM      7  C   UNL     1      18.563  31.660  53.668  1.00  0.00     0.010 C 
ATOM      8  C   UNL     1      18.177  32.261  54.804  1.00  0.00     0.025 C 
BRANCH   8   9
ATOM      9  C   UNL     1      18.604  33.686  55.162  1.00  0.00     0.064 C 
ATOM     10  O   UNL     1      19.626  34.082  54.532  1.00  0.00    -0.545 OA
ATOM     11  O   UNL     1      17.903  34.285  56.023  1.00  0.00    -0.545 OA
ENDBRANCH   8   9
ENDBRANCH   6   7
BRANCH   3  12
ATOM     12  O   UNL     1      17.287  26.418  52.051  1.00  0.00    -0.508 OA
ATOM     13  H   UNL     1      17.565  25.804  52.751  1.00  0.00     0.293 HD
ENDBRANCH   3  12
TORSDOF 3
ENDMDL
MODEL 9
REMARK VINA RESULT:    -5.242      2.147      6.166
REMARK INTER + INTRA:          -6.143
REMARK INTER:                  -6.003
REMARK INTRA:                  -0.140
REMARK UNBOUND:                -0.135
REMARK SMILES O=C([O-])/C=C/c1ccc(O)cc1
REMARK SMILES IDX 7 1 8 2 9 3 11 4 12 5 6 6 5 7 4 8 2 9 1 10 3 11 10 12
REMARK H PARENT 10 13
ROOT
ATOM      1  C   UNL     1      18.994  33.189  54.433  1.00  0.00     0.012 A 
ATOM      2  C   UNL     1      18.625  34.536  54.481  1.00  0.00     0.047 A 
ATOM      3  C   UNL     1      17.515  34.971  53.768  1.00  0.00     0.115 A 
ATOM      4  C   UNL     1      16.768  34.081  53.003  1.00  0.00     0.047 A 
ATOM      5  C   UNL     1      17.141  32.734  52.958  1.00  0.00     0.012 A 
ATOM      6  C   UNL     1      18.249  32.270  53.681  1.00  0.00    -0.025 A 
ENDROOT
BRANCH   6   7
ATOM      7  C   UNL     1      18.614  30.851  53.575  1.00  0.00     0.010 C 
ATOM      8  C   UNL     1      19.362  30.318  52.596  1.00  0.00     0.025 C 
BRANCH   8   9
ATOM      9  C   UNL     1      19.714  28.829  52.555  1.00  0.00     0.064 C 
ATOM     10  O   UNL     1      19.172  28.155  53.476  1.00  0.00    -0.545 OA
ATOM     11  O   UNL     1      20.485  28.458  51.628  1.00  0.00    -0.545 OA
ENDBRANCH   8   9
ENDBRANCH   6   7
BRANCH   3  12
ATOM     12  O   UNL     1      17.186  36.293  53.839  1.00  0.00    -0.508 OA
ATOM     13  H   UNL     1      16.235  36.373  53.659  1.00  0.00     0.293 HD
ENDBRANCH   3  12
TORSDOF 3
ENDMDL
