MODEL 1
REMARK VINA RESULT:    -5.706      0.000      0.000
REMARK INTER + INTRA:          -6.674
REMARK INTER:                  -6.539
REMARK INTRA:                  -0.135
REMARK UNBOUND:                -0.135
REMARK SMILES O=C([O-])/C=C/c1ccc(O)cc1
REMARK SMILES IDX 7 1 8 2 9 3 11 4 12 5 6 6 5 7 4 8 2 9 1 10 3 11 10 12
REMARK H PARENT 10 13
ROOT
ATOM      1  C   UNL     1      17.141  33.835  53.258  1.00  0.00     0.012 A 
ATOM      2  C   UNL     1      16.778  32.516  52.975  1.00  0.00     0.047 A 
ATOM      3  C   UNL     1      17.552  31.469  53.461  1.00  0.00     0.115 A 
ATOM      4  C   UNL     1      18.687  31.720  54.225  1.00  0.00     0.047 A 
ATOM      5  C   UNL     1      19.046  33.042  54.506  1.00  0.00     0.012 A 
ATOM      6  C   UNL     1      18.271  34.113  54.037  1.00  0.00    -0.025 A 
ENDROOT
BRANCH   6   7
ATOM      7  C   UNL     1      18.710  35.483  54.337  1.00  0.00     0.010 C 
ATOM      8  C   UNL     1      18.545  36.540  53.527  1.00  0.00     0.025 C 
BRANCH   8   9
ATOM      9  C   UNL     1      19.018  37.945  53.909  1.00  0.00     0.064 C 
ATOM     10  O   UNL     1      20.107  38.280  53.362  1.00  0.00    -0.545 OA
ATOM     11  O   UNL     1      18.283  38.590  54.707  1.00  0.00    -0.545 OA
ENDBRANCH   8   9
ENDBRANCH   6   7
BRANCH   3  12
ATOM     12  O   UNL     1      17.166  30.195  53.164  1.00  0.00    -0.508 OA
ATOM     13  H   UNL     1      17.361  29.637  53.934  1.00  0.00     0.293 HD
ENDBRANCH   3  12
TORSDOF 3
ENDMDL
MODEL 2
REMARK VINA RESULT:    -5.511      1.446      5.791
REMARK INTER + INTRA:          -6.451
REMARK INTER:                  -6.317
REMARK INTRA:                  -0.134
REMARK UNBOUND:                -0.135
REMARK SMILES O=C([O-])/C=C/c1ccc(O)cc1
REMARK SMILES IDX 7 1 8 2 9 3 11 4 12 5 6 6 5 7 4 8 2 9 1 10 3 11 10 12
REMARK H PARENT 10 13
ROOT
ATOM      1  C   UNL     1      19.028  36.247  53.710  1.00  0.00     0.012 A 
ATOM      2  C   UNL     1      19.084  37.596  54.069  1.00  0.00     0.047 A 
ATOM      3  C   UNL     1      18.534  38.011  55.275  1.00  0.00     0.115 A 
ATOM      4  C   UNL     1      17.925  37.098  56.129  1.00  0.00     0.047 A 
ATOM      5  C   UNL     1      17.871  35.748  55.766  1.00  0.00     0.012 A 
ATOM      6  C   UNL     1      18.433  35.306  54.560  1.00  0.00    -0.025 A 
ENDROOT
BRANCH   6   7
ATOM      7  C   UNL     1      18.323  33.882  54.213  1.00  0.00     0.010 C 
ATOM      8  C   UNL     1      18.986  32.886  54.821  1.00  0.00     0.025 C 
BRANCH   8   9
ATOM      9  C   UNL     1      18.814  31.421  54.415  1.00  0.00     0.064 C 
ATOM     10  O   UNL     1      18.776  31.243  53.164  1.00  0.00    -0.545 OA
ATOM     11  O   UNL     1      18.731  30.582  55.353  1.00  0.00    -0.545 OA
ENDBRANCH   8   9
ENDBRANCH   6   7
BRANCH   3  12
ATOM     12  O   UNL     1      18.608  39.336  55.591  1.00  0.00    -0.508 OA
ATOM     13  H   UNL     1      18.967  39.806  54.821  1.00  0.00     0.293 HD
ENDBRANCH   3  12
TORSDOF 3
ENDMDL
MODEL 3
REMARK VINA RESULT:    -5.476     11.359     12.152
REMARK INTER + INTRA:          -6.412
REMARK INTER:                  -6.269
REMARK INTRA:                  -0.143
REMARK UNBOUND:                -0.135
REMARK SMILES O=C([O-])/C=C/c1ccc(O)cc1
REMARK SMILES IDX 7 1 8 2 9 3 11 4 12 5 6 6 5 7 4 8 2 9 1 10 3 11 10 12
REMARK H PARENT 10 13
ROOT
ATOM      1  C   UNL     1      10.349  37.651  59.514  1.00  0.00     0.012 A 
ATOM      2  C   UNL     1      10.683  37.261  60.814  1.00  0.00     0.047 A 
ATOM      3  C   UNL     1       9.731  37.340  61.822  1.00  0.00     0.115 A 
ATOM      4  C   UNL     1       8.448  37.807  61.554  1.00  0.00     0.047 A 
ATOM      5  C   UNL     1       8.119  38.197  60.251  1.00  0.00     0.012 A 
ATOM      6  C   UNL     1       9.060  38.112  59.216  1.00  0.00    -0.025 A 
ENDROOT
BRANCH   6   7
ATOM      7  C   UNL     1       8.671  38.562  57.872  1.00  0.00     0.010 C 
ATOM      8  C   UNL     1       8.035  39.712  57.598  1.00  0.00     0.025 C 
BRANCH   8   9
ATOM      9  C   UNL     1       7.670  40.124  56.170  1.00  0.00     0.064 C 
ATOM     10  O   UNL     1       6.854  39.339  55.609  1.00  0.00    -0.545 OA
ATOM     11  O   UNL     1       8.213  41.174  55.730  1.00  0.00    -0.545 OA
ENDBRANCH   8   9
ENDBRANCH   6   7
BRANCH   3  12
ATOM     12  O   UNL     1      10.094  36.950  63.078  1.00  0.00    -0.508 OA
ATOM     13  H   UNL     1      10.981  37.303  63.255  1.00  0.00     0.293 HD
ENDBRANCH   3  12
TORSDOF 3
ENDMDL
MODEL 4
REMARK VINA RESULT:    -5.472      3.212      4.483
REMARK INTER + INTRA:          -6.407
REMARK INTER:                  -6.256
REMARK INTRA:                  -0.150
REMARK UNBOUND:                -0.135
REMARK SMILES O=C([O-])/C=C/c1ccc(O)cc1
REMARK SMILES IDX 7 1 8 2 9 3 11 4 12 5 6 6 5 7 4 8 2 9 1 10 3 11 10 12
REMARK H PARENT 10 13
ROOT
ATOM      1  C   UNL     1      17.118  28.922  53.061  1.00  0.00     0.012 A 
ATOM      2  C   UNL     1      17.933  27.794  52.937  1.00  0.00     0.047 A 
ATOM      3  C   UNL     1      19.287  27.951  52.669  1.00  0.00     0.115 A 
ATOM      4  C   UNL     1      19.841  29.218  52.519  1.00  0.00     0.047 A 
ATOM      5  C   UNL     1      19.020  30.344  52.644  1.00  0.00     0.012 A 
ATOM      6  C   UNL     1      17.654  30.210  52.929  1.00  0.00    -0.025 A 
ENDROOT
BRANCH   6   7
ATOM      7  C   UNL     1      16.832  31.424  53.020  1.00  0.00     0.010 C 
ATOM      8  C   UNL     1      17.293  32.679  52.905  1.00  0.00     0.025 C 
BRANCH   8   9
ATOM      9  C   UNL     1      16.375  33.900  52.999  1.00  0.00     0.064 C 
ATOM     10  O   UNL     1      16.780  34.891  52.328  1.00  0.00    -0.545 OA
ATOM     11  O   UNL     1      15.346  33.777  53.718  1.00  0.00    -0.545 OA
ENDBRANCH   8   9
ENDBRANCH   6   7
BRANCH   3  12
ATOM     12  O   UNL     1      20.052  26.827  52.555  1.00  0.00    -0.508 OA
ATOM     13  H   UNL     1      20.975  27.105  52.437  1.00  0.00     0.293 HD
ENDBRANCH   3  12
TORSDOF 3
ENDMDL
MODEL 5
REMARK VINA RESULT:    -5.439      3.652      4.458
REMARK INTER + INTRA:          -6.368
REMARK INTER:                  -6.228
REMARK INTRA:                  -0.140
REMARK UNBOUND:                -0.135
REMARK SMILES O=C([O-])/C=C/c1ccc(O)cc1
REMARK SMILES IDX 7 1 8 2 9 3 11 4 12 5 6 6 5 7 4 8 2 9 1 10 3 11 10 12
REMARK H PARENT 10 13
ROOT
ATOM      1  C   UNL     1      16.575  34.498  54.726  1.00  0.00     0.012 A 
ATOM      2  C   UNL     1      17.751  33.767  54.912  1.00  0.00     0.047 A 
ATOM      3  C   UNL     1      18.972  34.323  54.550  1.00  0.00     0.115 A 
ATOM      4  C   UNL     1      19.036  35.599  54.000  1.00  0.00     0.047 A 
ATOM      5  C   UNL     1      17.856  36.326  53.815  1.00  0.00     0.012 A 
ATOM      6  C   UNL     1      16.615  35.790  54.187  1.00  0.00    -0.025 A 
ENDROOT
BRANCH   6   7
ATOM      7  C   UNL     1      15.404  36.586  53.944  1.00  0.00     0.010 C 
ATOM      8  C   UNL     1      14.182  36.295  54.417  1.00  0.00     0.025 C 
BRANCH   8   9
ATOM      9  C   UNL     1      12.964  37.177  54.134  1.00  0.00     0.064 C 
ATOM     10  O   UNL     1      13.262  38.338  53.730  1.00  0.00    -0.545 OA
ATOM     11  O   UNL     1      11.832  36.656  54.330  1.00  0.00    -0.545 OA
ENDBRANCH   8   9
ENDBRANCH   6   7
BRANCH   3  12
ATOM     12  O   UNL     1      20.098  33.579  54.747  1.00  0.00    -0.508 OA
ATOM     13  H   UNL     1      20.822  33.997  54.252  1.00  0.00     0.293 HD
ENDBRANCH   3  12
TORSDOF 3
ENDMDL
MODEL 6
REMARK VINA RESULT:    -5.352      1.135      5.850
REMARK INTER + INTRA:          -6.269
REMARK INTER:                  -6.131
REMARK INTRA:                  -0.139
REMARK UNBOUND:                -0.135
REMARK SMILES O=C([O-])/C=C/c1ccc(O)cc1
REMARK SMILES IDX 7 1 8 2 9 3 11 4 12 5 6 6 5 7 4 8 2 9 1 10 3 11 10 12
REMARK H PARENT 10 13
ROOT
ATOM      1  C   UNL     1      18.830  34.613  54.192  1.00  0.00     0.012 A 
ATOM      2  C   UNL     1      19.004  35.999  54.236  1.00  0.00     0.047 A 
ATOM      3  C   UNL     1      18.058  36.830  53.649  1.00  0.00     0.115 A 
ATOM      4  C   UNL     1      16.941  36.298  53.014  1.00  0.00     0.047 A 
ATOM      5  C   UNL     1      16.772  34.911  52.971  1.00  0.00     0.012 A 
ATOM      6  C   UNL     1      17.706  34.054  53.570  1.00  0.00    -0.025 A 
ENDROOT
BRANCH   6   7
ATOM      7  C   UNL     1      17.495  32.603  53.471  1.00  0.00     0.010 C 
ATOM      8  C   UNL     1      18.451  31.673  53.615  1.00  0.00     0.025 C 
BRANCH   8   9
ATOM      9  C   UNL     1      18.157  30.175  53.510  1.00  0.00     0.064 C 
ATOM     10  O   UNL     1      19.022  29.447  54.076  1.00  0.00    -0.545 OA
ATOM     11  O   UNL     1      17.109  29.848  52.887  1.00  0.00    -0.545 OA
ENDBRANCH   8   9
ENDBRANCH   6   7
BRANCH   3  12
ATOM     12  O   UNL     1      18.261  38.178  53.713  1.00  0.00    -0.508 OA
ATOM     13  H   UNL     1      18.081  38.464  54.623  1.00  0.00     0.293 HD
ENDBRANCH   3  12
TORSDOF 3
ENDMDL
MODEL 7
REMARK VINA RESULT:    -5.305      2.665      3.780
REMARK INTER + INTRA:          -6.215
REMARK INTER:                  -6.072
REMARK INTRA:                  -0.143
REMARK UNBOUND:                -0.135
REMARK SMILES O=C([O-])/C=C/c1ccc(O)cc1
REMARK SMILES IDX 7 1 8 2 9 3 11 4 12 5 6 6 5 7 4 8 2 9 1 10 3 11 10 12
REMARK H PARENT 10 13
ROOT
ATOM      1  C   UNL     1      16.496  29.750  52.948  1.00  0.00     0.012 A 
ATOM      2  C   UNL     1      16.948  28.429  53.011  1.00  0.00     0.047 A 
ATOM      3  C   UNL     1      18.312  28.171  53.077  1.00  0.00     0.115 A 
ATOM      4  C   UNL     1      19.233  29.214  53.078  1.00  0.00     0.047 A 
ATOM      5  C   UNL     1      18.775  30.534  53.015  1.00  0.00     0.012 A 
ATOM      6  C   UNL     1      17.403  30.817  52.963  1.00  0.00    -0.025 A 
ENDROOT
BRANCH   6   7
ATOM      7  C   UNL     1      16.978  32.221  52.869  1.00  0.00     0.010 C 
ATOM      8  C   UNL     1      17.531  33.241  53.543  1.00  0.00     0.025 C 
BRANCH   8   9
ATOM      9  C   UNL     1      17.044  34.683  53.386  1.00  0.00     0.064 C 
ATOM     10  O   UNL     1      16.985  35.320  54.477  1.00  0.00    -0.545 OA
ATOM     11  O   UNL     1      16.765  35.061  52.215  1.00  0.00    -0.545 OA
ENDBRANCH   8   9
ENDBRANCH   6   7
BRANCH   3  12
ATOM     12  O   UNL     1      18.715  26.870  53.136  1.00  0.00    -0.508 OA
ATOM     13  H   UNL     1      18.086  26.339  52.621  1.00  0.00     0.293 HD
ENDBRANCH   3  12
TORSDOF 3
ENDMDL
MODEL 8
REMARK VINA RESULT:    -5.288      1.967      6.002
REMARK INTER + INTRA:          -6.196
REMARK INTER:                  -6.057
REMARK INTRA:                  -0.139
REMARK UNBOUND:                -0.135
REMARK SMILES O=C([O-])/C=C/c1ccc(O)cc1
REMARK SMILES IDX 7 1 8 2 9 3 11 4 12 5 6 6 5 7 4 8 2 9 1 10 3 11 10 12
REMARK H PARENT 10 13
ROOT
ATOM      1  C   UNL     1      19.015  33.495  54.460  1.00  0.00     0.012 A 
ATOM      2  C   UNL     1      18.652  34.844  54.470  1.00  0.00     0.047 A 
ATOM      3  C   UNL     1      17.526  35.259  53.770  1.00  0.00     0.115 A 
ATOM      4  C   UNL     1      16.758  34.346  53.054  1.00  0.00     0.047 A 
ATOM      5  C   UNL     1      17.126  32.997  53.047  1.00  0.00     0.012 A 
ATOM      6  C   UNL     1      18.249  32.554  53.759  1.00  0.00    -0.025 A 
ENDROOT
BRANCH   6   7
ATOM      7  C   UNL     1      18.608  31.131  53.693  1.00  0.00     0.010 C 
ATOM      8  C   UNL     1      19.124  30.514  52.619  1.00  0.00     0.025 C 
BRANCH   8   9
ATOM      9  C   UNL     1      19.485  29.027  52.626  1.00  0.00     0.064 C 
ATOM     10  O   UNL     1      20.427  28.731  51.837  1.00  0.00    -0.545 OA
ATOM     11  O   UNL     1      18.818  28.287  53.400  1.00  0.00    -0.545 OA
ENDBRANCH   8   9
ENDBRANCH   6   7
BRANCH   3  12
ATOM     12  O   UNL     1      17.203  36.584  53.803  1.00  0.00    -0.508 OA
ATOM     13  H   UNL     1      16.952  36.807  54.714  1.00  0.00     0.293 HD
ENDBRANCH   3  12
TORSDOF 3
ENDMDL
MODEL 9
REMARK VINA RESULT:    -5.251     12.417     13.661
REMARK INTER + INTRA:          -6.153
REMARK INTER:                  -6.009
REMARK INTRA:                  -0.144
REMARK UNBOUND:                -0.135
REMARK SMILES O=C([O-])/C=C/c1ccc(O)cc1
REMARK SMILES IDX 7 1 8 2 9 3 11 4 12 5 6 6 5 7 4 8 2 9 1 10 3 11 10 12
REMARK H PARENT 10 13
ROOT
ATOM      1  C   UNL     1       7.939  38.056  55.921  1.00  0.00     0.012 A 
ATOM      2  C   UNL     1       9.076  38.481  55.227  1.00  0.00     0.047 A 
ATOM      3  C   UNL     1       9.233  39.828  54.924  1.00  0.00     0.115 A 
ATOM      4  C   UNL     1       8.269  40.758  55.300  1.00  0.00     0.047 A 
ATOM      5  C   UNL     1       7.134  40.327  55.994  1.00  0.00     0.012 A 
ATOM      6  C   UNL     1       6.962  38.975  56.323  1.00  0.00    -0.025 A 
ENDROOT
BRANCH   6   7
ATOM      7  C   UNL     1       5.737  38.573  57.026  1.00  0.00     0.010 C 
ATOM      8  C   UNL     1       5.191  39.229  58.063  1.00  0.00     0.025 C 
BRANCH   8   9
ATOM      9  C   UNL     1       3.903  38.758  58.741  1.00  0.00     0.064 C 
ATOM     10  O   UNL     1       3.703  39.286  59.872  1.00  0.00    -0.545 OA
ATOM     11  O   UNL     1       3.206  37.918  58.108  1.00  0.00    -0.545 OA
ENDBRANCH   8   9
ENDBRANCH   6   7
BRANCH   3  12
ATOM     12  O   UNL     1      10.355  40.205  54.246  1.00  0.00    -0.508 OA
ATOM     13  H   UNL     1      10.202  41.096  53.890  1.00  0.00     0.293 HD
ENDBRANCH   3  12
TORSDOF 3
ENDMDL
