MODEL 1
REMARK VINA RESULT:    -5.708      0.000      0.000
REMARK INTER + INTRA:          -6.677
REMARK INTER:                  -6.542
REMARK INTRA:                  -0.135
REMARK UNBOUND:                -0.135
REMARK SMILES O=C([O-])/C=C/c1ccc(O)cc1
REMARK SMILES IDX 7 1 8 2 9 3 11 4 12 5 6 6 5 7 4 8 2 9 1 10 3 11 10 12
REMARK H PARENT 10 13
ROOT
ATOM      1  C   UNL     1      17.150  33.893  53.247  1.00  0.00     0.012 A 
ATOM      2  C   UNL     1      16.789  32.577  52.947  1.00  0.00     0.047 A 
ATOM      3  C   UNL     1      17.553  31.525  53.437  1.00  0.00     0.115 A 
ATOM      4  C   UNL     1      18.677  31.768  54.220  1.00  0.00     0.047 A 
ATOM      5  C   UNL     1      19.035  33.087  54.517  1.00  0.00     0.012 A 
ATOM      6  C   UNL     1      18.270  34.163  54.045  1.00  0.00    -0.025 A 
ENDROOT
BRANCH   6   7
ATOM      7  C   UNL     1      18.707  35.529  54.362  1.00  0.00     0.010 C 
ATOM      8  C   UNL     1      18.595  36.585  53.541  1.00  0.00     0.025 C 
BRANCH   8   9
ATOM      9  C   UNL     1      19.061  37.986  53.943  1.00  0.00     0.064 C 
ATOM     10  O   UNL     1      20.162  38.323  53.421  1.00  0.00    -0.545 OA
ATOM     11  O   UNL     1      18.311  38.627  54.729  1.00  0.00    -0.545 OA
ENDBRANCH   8   9
ENDBRANCH   6   7
BRANCH   3  12
ATOM     12  O   UNL     1      17.170  30.255  53.124  1.00  0.00    -0.508 OA
ATOM     13  H   UNL     1      16.760  30.275  52.243  1.00  0.00     0.293 HD
ENDBRANCH   3  12
TORSDOF 3
ENDMDL
MODEL 2
REMARK VINA RESULT:    -5.497      1.416      5.814
REMARK INTER + INTRA:          -6.435
REMARK INTER:                  -6.299
REMARK INTRA:                  -0.136
REMARK UNBOUND:                -0.135
REMARK SMILES O=C([O-])/C=C/c1ccc(O)cc1
REMARK SMILES IDX 7 1 8 2 9 3 11 4 12 5 6 6 5 7 4 8 2 9 1 10 3 11 10 12
REMARK H PARENT 10 13
ROOT
ATOM      1  C   UNL     1      19.021  36.239  53.673  1.00  0.00     0.012 A 
ATOM      2  C   UNL     1      19.058  37.580  54.063  1.00  0.00     0.047 A 
ATOM      3  C   UNL     1      18.523  37.954  55.289  1.00  0.00     0.115 A 
ATOM      4  C   UNL     1      17.947  37.009  56.132  1.00  0.00     0.047 A 
ATOM      5  C   UNL     1      17.913  35.668  55.736  1.00  0.00     0.012 A 
ATOM      6  C   UNL     1      18.460  35.266  54.510  1.00  0.00    -0.025 A 
ENDROOT
BRANCH   6   7
ATOM      7  C   UNL     1      18.371  33.849  54.130  1.00  0.00     0.010 C 
ATOM      8  C   UNL     1      18.910  32.831  54.819  1.00  0.00     0.025 C 
BRANCH   8   9
ATOM      9  C   UNL     1      18.768  31.375  54.370  1.00  0.00     0.064 C 
ATOM     10  O   UNL     1      18.754  30.549  55.326  1.00  0.00    -0.545 OA
ATOM     11  O   UNL     1      18.682  31.173  53.128  1.00  0.00    -0.545 OA
ENDBRANCH   8   9
ENDBRANCH   6   7
BRANCH   3  12
ATOM     12  O   UNL     1      18.577  39.272  55.636  1.00  0.00    -0.508 OA
ATOM     13  H   UNL     1      18.178  39.365  56.517  1.00  0.00     0.293 HD
ENDBRANCH   3  12
TORSDOF 3
ENDMDL
MODEL 3
REMARK VINA RESULT:    -5.479     11.556     12.342
REMARK INTER + INTRA:          -6.415
REMARK INTER:                  -6.271
REMARK INTRA:                  -0.143
REMARK UNBOUND:                -0.135
REMARK SMILES O=C([O-])/C=C/c1ccc(O)cc1
REMARK SMILES IDX 7 1 8 2 9 3 11 4 12 5 6 6 5 7 4 8 2 9 1 10 3 11 10 12
REMARK H PARENT 10 13
ROOT
ATOM      1  C   UNL     1      10.179  37.610  59.886  1.00  0.00     0.012 A 
ATOM      2  C   UNL     1      10.392  37.254  61.220  1.00  0.00     0.047 A 
ATOM      3  C   UNL     1       9.359  37.382  62.140  1.00  0.00     0.115 A 
ATOM      4  C   UNL     1       8.114  37.865  61.748  1.00  0.00     0.047 A 
ATOM      5  C   UNL     1       7.906  38.220  60.411  1.00  0.00     0.012 A 
ATOM      6  C   UNL     1       8.931  38.085  59.463  1.00  0.00    -0.025 A 
ENDROOT
BRANCH   6   7
ATOM      7  C   UNL     1       8.667  38.500  58.079  1.00  0.00     0.010 C 
ATOM      8  C   UNL     1       7.982  39.596  57.719  1.00  0.00     0.025 C 
BRANCH   8   9
ATOM      9  C   UNL     1       7.756  39.975  56.254  1.00  0.00     0.064 C 
ATOM     10  O   UNL     1       8.352  41.033  55.906  1.00  0.00    -0.545 OA
ATOM     11  O   UNL     1       7.018  39.205  55.580  1.00  0.00    -0.545 OA
ENDBRANCH   8   9
ENDBRANCH   6   7
BRANCH   3  12
ATOM     12  O   UNL     1       9.604  37.025  63.433  1.00  0.00    -0.508 OA
ATOM     13  H   UNL     1      10.422  37.466  63.714  1.00  0.00     0.293 HD
ENDBRANCH   3  12
TORSDOF 3
ENDMDL
MODEL 4
REMARK VINA RESULT:    -5.453      3.127      4.259
REMARK INTER + INTRA:          -6.385
REMARK INTER:                  -6.239
REMARK INTRA:                  -0.146
REMARK UNBOUND:                -0.135
REMARK SMILES O=C([O-])/C=C/c1ccc(O)cc1
REMARK SMILES IDX 7 1 8 2 9 3 11 4 12 5 6 6 5 7 4 8 2 9 1 10 3 11 10 12
REMARK H PARENT 10 13
ROOT
ATOM      1  C   UNL     1      17.011  29.190  52.965  1.00  0.00     0.012 A 
ATOM      2  C   UNL     1      17.762  28.017  52.858  1.00  0.00     0.047 A 
ATOM      3  C   UNL     1      19.138  28.094  52.683  1.00  0.00     0.115 A 
ATOM      4  C   UNL     1      19.777  29.328  52.609  1.00  0.00     0.047 A 
ATOM      5  C   UNL     1      19.021  30.499  52.716  1.00  0.00     0.012 A 
ATOM      6  C   UNL     1      17.633  30.444  52.908  1.00  0.00    -0.025 A 
ENDROOT
BRANCH   6   7
ATOM      7  C   UNL     1      16.883  31.705  52.984  1.00  0.00     0.010 C 
ATOM      8  C   UNL     1      17.421  32.909  53.238  1.00  0.00     0.025 C 
BRANCH   8   9
ATOM      9  C   UNL     1      16.579  34.186  53.291  1.00  0.00     0.064 C 
ATOM     10  O   UNL     1      16.686  34.907  52.259  1.00  0.00    -0.545 OA
ATOM     11  O   UNL     1      15.891  34.365  54.333  1.00  0.00    -0.545 OA
ENDBRANCH   8   9
ENDBRANCH   6   7
BRANCH   3  12
ATOM     12  O   UNL     1      19.838  26.928  52.583  1.00  0.00    -0.508 OA
ATOM     13  H   UNL     1      19.813  26.490  53.449  1.00  0.00     0.293 HD
ENDBRANCH   3  12
TORSDOF 3
ENDMDL
MODEL 5
REMARK VINA RESULT:    -5.452      3.650      4.456
REMARK INTER + INTRA:          -6.383
REMARK INTER:                  -6.246
REMARK INTRA:                  -0.137
REMARK UNBOUND:                -0.135
REMARK SMILES O=C([O-])/C=C/c1ccc(O)cc1
REMARK SMILES IDX 7 1 8 2 9 3 11 4 12 5 6 6 5 7 4 8 2 9 1 10 3 11 10 12
REMARK H PARENT 10 13
ROOT
ATOM      1  C   UNL     1      16.529  34.391  54.329  1.00  0.00     0.012 A 
ATOM      2  C   UNL     1      17.716  33.682  54.531  1.00  0.00     0.047 A 
ATOM      3  C   UNL     1      18.937  34.330  54.396  1.00  0.00     0.115 A 
ATOM      4  C   UNL     1      18.992  35.678  54.057  1.00  0.00     0.047 A 
ATOM      5  C   UNL     1      17.801  36.384  53.855  1.00  0.00     0.012 A 
ATOM      6  C   UNL     1      16.558  35.753  54.001  1.00  0.00    -0.025 A 
ENDROOT
BRANCH   6   7
ATOM      7  C   UNL     1      15.339  36.534  53.748  1.00  0.00     0.010 C 
ATOM      8  C   UNL     1      14.168  36.363  54.382  1.00  0.00     0.025 C 
BRANCH   8   9
ATOM      9  C   UNL     1      12.940  37.223  54.076  1.00  0.00     0.064 C 
ATOM     10  O   UNL     1      13.223  38.396  53.700  1.00  0.00    -0.545 OA
ATOM     11  O   UNL     1      11.815  36.673  54.229  1.00  0.00    -0.545 OA
ENDBRANCH   8   9
ENDBRANCH   6   7
BRANCH   3  12
ATOM     12  O   UNL     1      20.073  33.605  54.602  1.00  0.00    -0.508 OA
ATOM     13  H   UNL     1      19.921  33.022  55.363  1.00  0.00     0.293 HD
ENDBRANCH   3  12
TORSDOF 3
ENDMDL
MODEL 6
REMARK VINA RESULT:    -5.361     12.307     13.521
REMARK INTER + INTRA:          -6.279
REMARK INTER:                  -6.132
REMARK INTRA:                  -0.147
REMARK UNBOUND:                -0.135
REMARK SMILES O=C([O-])/C=C/c1ccc(O)cc1
REMARK SMILES IDX 7 1 8 2 9 3 11 4 12 5 6 6 5 7 4 8 2 9 1 10 3 11 10 12
REMARK H PARENT 10 13
ROOT
ATOM      1  C   UNL     1       8.637  38.511  56.887  1.00  0.00     0.012 A 
ATOM      2  C   UNL     1       9.657  38.809  55.979  1.00  0.00     0.047 A 
ATOM      3  C   UNL     1       9.478  39.831  55.055  1.00  0.00     0.115 A 
ATOM      4  C   UNL     1       8.293  40.559  55.021  1.00  0.00     0.047 A 
ATOM      5  C   UNL     1       7.276  40.256  55.931  1.00  0.00     0.012 A 
ATOM      6  C   UNL     1       7.441  39.239  56.882  1.00  0.00    -0.025 A 
ENDROOT
BRANCH   6   7
ATOM      7  C   UNL     1       6.329  38.943  57.796  1.00  0.00     0.010 C 
ATOM      8  C   UNL     1       5.036  39.210  57.551  1.00  0.00     0.025 C 
BRANCH   8   9
ATOM      9  C   UNL     1       3.927  38.863  58.545  1.00  0.00     0.064 C 
ATOM     10  O   UNL     1       3.899  39.618  59.558  1.00  0.00    -0.545 OA
ATOM     11  O   UNL     1       3.186  37.887  58.245  1.00  0.00    -0.545 OA
ENDBRANCH   8   9
ENDBRANCH   6   7
BRANCH   3  12
ATOM     12  O   UNL     1      10.495  40.093  54.185  1.00  0.00    -0.508 OA
ATOM     13  H   UNL     1      10.102  40.376  53.343  1.00  0.00     0.293 HD
ENDBRANCH   3  12
TORSDOF 3
ENDMDL
MODEL 7
REMARK VINA RESULT:    -5.336      1.164      5.857
REMARK INTER + INTRA:          -6.251
REMARK INTER:                  -6.111
REMARK INTRA:                  -0.140
REMARK UNBOUND:                -0.135
REMARK SMILES O=C([O-])/C=C/c1ccc(O)cc1
REMARK SMILES IDX 7 1 8 2 9 3 11 4 12 5 6 6 5 7 4 8 2 9 1 10 3 11 10 12
REMARK H PARENT 10 13
ROOT
ATOM      1  C   UNL     1      18.758  34.510  54.247  1.00  0.00     0.012 A 
ATOM      2  C   UNL     1      18.884  35.896  54.374  1.00  0.00     0.047 A 
ATOM      3  C   UNL     1      17.937  36.729  53.792  1.00  0.00     0.115 A 
ATOM      4  C   UNL     1      16.866  36.199  53.079  1.00  0.00     0.047 A 
ATOM      5  C   UNL     1      16.745  34.811  52.954  1.00  0.00     0.012 A 
ATOM      6  C   UNL     1      17.681  33.952  53.547  1.00  0.00    -0.025 A 
ENDROOT
BRANCH   6   7
ATOM      7  C   UNL     1      17.523  32.503  53.360  1.00  0.00     0.010 C 
ATOM      8  C   UNL     1      18.482  31.588  53.572  1.00  0.00     0.025 C 
BRANCH   8   9
ATOM      9  C   UNL     1      18.243  30.091  53.368  1.00  0.00     0.064 C 
ATOM     10  O   UNL     1      19.202  29.366  53.761  1.00  0.00    -0.545 OA
ATOM     11  O   UNL     1      17.144  29.761  52.845  1.00  0.00    -0.545 OA
ENDBRANCH   8   9
ENDBRANCH   6   7
BRANCH   3  12
ATOM     12  O   UNL     1      18.092  38.076  53.937  1.00  0.00    -0.508 OA
ATOM     13  H   UNL     1      18.700  38.383  53.245  1.00  0.00     0.293 HD
ENDBRANCH   3  12
TORSDOF 3
ENDMDL
MODEL 8
REMARK VINA RESULT:    -5.286      7.118      8.457
REMARK INTER + INTRA:          -6.193
REMARK INTER:                  -6.045
REMARK INTRA:                  -0.148
REMARK UNBOUND:                -0.135
REMARK SMILES O=C([O-])/C=C/c1ccc(O)cc1
REMARK SMILES IDX 7 1 8 2 9 3 11 4 12 5 6 6 5 7 4 8 2 9 1 10 3 11 10 12
REMARK H PARENT 10 13
ROOT
ATOM      1  C   UNL     1       9.911  36.542  54.285  1.00  0.00     0.012 A 
ATOM      2  C   UNL     1       8.917  37.517  54.171  1.00  0.00     0.047 A 
ATOM      3  C   UNL     1       9.274  38.854  54.049  1.00  0.00     0.115 A 
ATOM      4  C   UNL     1      10.612  39.234  54.043  1.00  0.00     0.047 A 
ATOM      5  C   UNL     1      11.604  38.255  54.158  1.00  0.00     0.012 A 
ATOM      6  C   UNL     1      11.266  36.898  54.268  1.00  0.00    -0.025 A 
ENDROOT
BRANCH   6   7
ATOM      7  C   UNL     1      12.347  35.914  54.415  1.00  0.00     0.010 C 
ATOM      8  C   UNL     1      13.657  36.202  54.424  1.00  0.00     0.025 C 
BRANCH   8   9
ATOM      9  C   UNL     1      14.730  35.124  54.594  1.00  0.00     0.064 C 
ATOM     10  O   UNL     1      15.321  34.822  53.519  1.00  0.00    -0.545 OA
ATOM     11  O   UNL     1      14.897  34.674  55.761  1.00  0.00    -0.545 OA
ENDBRANCH   8   9
ENDBRANCH   6   7
BRANCH   3  12
ATOM     12  O   UNL     1       8.276  39.777  53.939  1.00  0.00    -0.508 OA
ATOM     13  H   UNL     1       8.225  40.262  54.779  1.00  0.00     0.293 HD
ENDBRANCH   3  12
TORSDOF 3
ENDMDL
MODEL 9
REMARK VINA RESULT:    -5.248      3.061      4.179
REMARK INTER + INTRA:          -6.150
REMARK INTER:                  -6.016
REMARK INTRA:                  -0.134
REMARK UNBOUND:                -0.135
REMARK SMILES O=C([O-])/C=C/c1ccc(O)cc1
REMARK SMILES IDX 7 1 8 2 9 3 11 4 12 5 6 6 5 7 4 8 2 9 1 10 3 11 10 12
REMARK H PARENT 10 13
ROOT
ATOM      1  C   UNL     1      16.877  29.919  52.959  1.00  0.00     0.012 A 
ATOM      2  C   UNL     1      16.545  28.627  52.543  1.00  0.00     0.047 A 
ATOM      3  C   UNL     1      17.541  27.665  52.423  1.00  0.00     0.115 A 
ATOM      4  C   UNL     1      18.866  27.975  52.709  1.00  0.00     0.047 A 
ATOM      5  C   UNL     1      19.194  29.270  53.125  1.00  0.00     0.012 A 
ATOM      6  C   UNL     1      18.203  30.252  53.267  1.00  0.00    -0.025 A 
ENDROOT
BRANCH   6   7
ATOM      7  C   UNL     1      18.606  31.603  53.679  1.00  0.00     0.010 C 
ATOM      8  C   UNL     1      18.109  32.268  54.733  1.00  0.00     0.025 C 
BRANCH   8   9
ATOM      9  C   UNL     1      18.585  33.673  55.112  1.00  0.00     0.064 C 
ATOM     10  O   UNL     1      19.713  33.974  54.628  1.00  0.00    -0.545 OA
ATOM     11  O   UNL     1      17.814  34.351  55.845  1.00  0.00    -0.545 OA
ENDBRANCH   8   9
ENDBRANCH   6   7
BRANCH   3  12
ATOM     12  O   UNL     1      17.179  26.415  52.014  1.00  0.00    -0.508 OA
ATOM     13  H   UNL     1      16.209  26.366  52.029  1.00  0.00     0.293 HD
ENDBRANCH   3  12
TORSDOF 3
ENDMDL
