MODEL 1
REMARK VINA RESULT:    -6.213      0.000      0.000
REMARK INTER + INTRA:          -7.446
REMARK INTER:                  -7.302
REMARK INTRA:                  -0.144
REMARK UNBOUND:                -0.144
REMARK SMILES O=C([O-])/C=C/c1ccc(O)c(O)c1
REMARK SMILES IDX 7 1 8 2 9 3 11 4 13 5 6 6 5 7 4 8 2 9 1 10 3 11 10 12 12 14
REMARK H PARENT 10 13 12 15
ROOT
ATOM      1  C   UNL     1      17.409  33.864  53.397  1.00  0.00     0.012 A 
ATOM      2  C   UNL     1      16.925  32.553  53.350  1.00  0.00     0.051 A 
ATOM      3  C   UNL     1      17.601  31.561  54.049  1.00  0.00     0.157 A 
ATOM      4  C   UNL     1      18.744  31.870  54.781  1.00  0.00     0.157 A 
ATOM      5  C   UNL     1      19.228  33.173  54.832  1.00  0.00     0.058 A 
ATOM      6  C   UNL     1      18.554  34.190  54.144  1.00  0.00    -0.022 A 
ENDROOT
BRANCH   6   7
ATOM      7  C   UNL     1      19.023  35.583  54.126  1.00  0.00     0.010 C 
ATOM      8  C   UNL     1      18.241  36.661  53.955  1.00  0.00     0.025 C 
BRANCH   8   9
ATOM      9  C   UNL     1      18.809  38.081  53.924  1.00  0.00     0.064 C 
ATOM     10  O   UNL     1      19.631  38.339  53.001  1.00  0.00    -0.545 OA
ATOM     11  O   UNL     1      18.367  38.826  54.845  1.00  0.00    -0.545 OA
ENDBRANCH   8   9
ENDBRANCH   6   7
BRANCH   3  12
ATOM     12  O   UNL     1      17.178  30.259  54.043  1.00  0.00    -0.504 OA
ATOM     13  H   UNL     1      16.314  30.237  53.597  1.00  0.00     0.293 HD
ENDBRANCH   3  12
BRANCH   4  14
ATOM     14  O   UNL     1      19.403  30.879  55.455  1.00  0.00    -0.504 OA
ATOM     15  H   UNL     1      18.765  30.142  55.476  1.00  0.00     0.293 HD
ENDBRANCH   4  14
TORSDOF 4
ENDMDL
MODEL 2
REMARK VINA RESULT:    -6.135      3.209      4.240
REMARK INTER + INTRA:          -7.355
REMARK INTER:                  -7.236
REMARK INTRA:                  -0.120
REMARK UNBOUND:                -0.144
REMARK SMILES O=C([O-])/C=C/c1ccc(O)c(O)c1
REMARK SMILES IDX 7 1 8 2 9 3 11 4 13 5 6 6 5 7 4 8 2 9 1 10 3 11 10 12 12 14
REMARK H PARENT 10 13 12 15
ROOT
ATOM      1  C   UNL     1      17.102  29.349  53.345  1.00  0.00     0.012 A 
ATOM      2  C   UNL     1      17.757  28.114  53.353  1.00  0.00     0.051 A 
ATOM      3  C   UNL     1      19.089  28.056  52.963  1.00  0.00     0.157 A 
ATOM      4  C   UNL     1      19.757  29.212  52.565  1.00  0.00     0.157 A 
ATOM      5  C   UNL     1      19.110  30.442  52.556  1.00  0.00     0.058 A 
ATOM      6  C   UNL     1      17.770  30.525  52.959  1.00  0.00    -0.022 A 
ENDROOT
BRANCH   6   7
ATOM      7  C   UNL     1      17.013  31.783  52.947  1.00  0.00     0.010 C 
ATOM      8  C   UNL     1      17.515  32.992  53.245  1.00  0.00     0.025 C 
BRANCH   8   9
ATOM      9  C   UNL     1      16.653  34.256  53.233  1.00  0.00     0.064 C 
ATOM     10  O   UNL     1      16.725  34.978  52.200  1.00  0.00    -0.545 OA
ATOM     11  O   UNL     1      15.966  34.413  54.282  1.00  0.00    -0.545 OA
ENDBRANCH   8   9
ENDBRANCH   6   7
BRANCH   3  12
ATOM     12  O   UNL     1      19.785  26.877  52.949  1.00  0.00    -0.504 OA
ATOM     13  H   UNL     1      19.457  26.338  53.688  1.00  0.00     0.293 HD
ENDBRANCH   3  12
BRANCH   4  14
ATOM     14  O   UNL     1      21.064  29.134  52.173  1.00  0.00    -0.504 OA
ATOM     15  H   UNL     1      21.330  28.226  52.410  1.00  0.00     0.293 HD
ENDBRANCH   4  14
TORSDOF 4
ENDMDL
MODEL 3
REMARK VINA RESULT:    -5.861      3.146      4.091
REMARK INTER + INTRA:          -7.032
REMARK INTER:                  -6.907
REMARK INTRA:                  -0.125
REMARK UNBOUND:                -0.144
REMARK SMILES O=C([O-])/C=C/c1ccc(O)c(O)c1
REMARK SMILES IDX 7 1 8 2 9 3 11 4 13 5 6 6 5 7 4 8 2 9 1 10 3 11 10 12 12 14
REMARK H PARENT 10 13 12 15
ROOT
ATOM      1  C   UNL     1      18.015  29.762  54.475  1.00  0.00     0.012 A 
ATOM      2  C   UNL     1      18.303  28.394  54.484  1.00  0.00     0.051 A 
ATOM      3  C   UNL     1      19.199  27.889  53.550  1.00  0.00     0.157 A 
ATOM      4  C   UNL     1      19.795  28.734  52.618  1.00  0.00     0.157 A 
ATOM      5  C   UNL     1      19.512  30.095  52.605  1.00  0.00     0.058 A 
ATOM      6  C   UNL     1      18.622  30.627  53.547  1.00  0.00    -0.022 A 
ENDROOT
BRANCH   6   7
ATOM      7  C   UNL     1      18.252  32.048  53.576  1.00  0.00     0.010 C 
ATOM      8  C   UNL     1      18.819  32.981  54.358  1.00  0.00     0.025 C 
BRANCH   8   9
ATOM      9  C   UNL     1      18.359  34.440  54.348  1.00  0.00     0.064 C 
ATOM     10  O   UNL     1      17.116  34.640  54.432  1.00  0.00    -0.545 OA
ATOM     11  O   UNL     1      19.307  35.271  54.258  1.00  0.00    -0.545 OA
ENDBRANCH   8   9
ENDBRANCH   6   7
BRANCH   3  12
ATOM     12  O   UNL     1      19.522  26.559  53.508  1.00  0.00    -0.504 OA
ATOM     13  H   UNL     1      20.173  26.441  52.795  1.00  0.00     0.293 HD
ENDBRANCH   3  12
BRANCH   4  14
ATOM     14  O   UNL     1      20.666  28.217  51.699  1.00  0.00    -0.504 OA
ATOM     15  H   UNL     1      20.089  27.787  51.040  1.00  0.00     0.293 HD
ENDBRANCH   4  14
TORSDOF 4
ENDMDL
MODEL 4
REMARK VINA RESULT:    -5.765      0.832      1.912
REMARK INTER + INTRA:          -6.920
REMARK INTER:                  -6.798
REMARK INTRA:                  -0.122
REMARK UNBOUND:                -0.144
REMARK SMILES O=C([O-])/C=C/c1ccc(O)c(O)c1
REMARK SMILES IDX 7 1 8 2 9 3 11 4 13 5 6 6 5 7 4 8 2 9 1 10 3 11 10 12 12 14
REMARK H PARENT 10 13 12 15
ROOT
ATOM      1  C   UNL     1      19.135  33.163  54.772  1.00  0.00     0.012 A 
ATOM      2  C   UNL     1      18.645  31.853  54.760  1.00  0.00     0.051 A 
ATOM      3  C   UNL     1      17.478  31.578  54.059  1.00  0.00     0.157 A 
ATOM      4  C   UNL     1      16.806  32.594  53.384  1.00  0.00     0.157 A 
ATOM      5  C   UNL     1      17.289  33.897  53.392  1.00  0.00     0.058 A 
ATOM      6  C   UNL     1      18.472  34.194  54.082  1.00  0.00    -0.022 A 
ENDROOT
BRANCH   6   7
ATOM      7  C   UNL     1      19.026  35.552  54.161  1.00  0.00     0.010 C 
ATOM      8  C   UNL     1      18.381  36.674  53.803  1.00  0.00     0.025 C 
BRANCH   8   9
ATOM      9  C   UNL     1      19.038  38.053  53.892  1.00  0.00     0.064 C 
ATOM     10  O   UNL     1      20.093  38.219  53.220  1.00  0.00    -0.545 OA
ATOM     11  O   UNL     1      18.421  38.863  54.642  1.00  0.00    -0.545 OA
ENDBRANCH   8   9
ENDBRANCH   6   7
BRANCH   3  12
ATOM     12  O   UNL     1      16.948  30.316  54.009  1.00  0.00    -0.504 OA
ATOM     13  H   UNL     1      17.490  29.799  53.389  1.00  0.00     0.293 HD
ENDBRANCH   3  12
BRANCH   4  14
ATOM     14  O   UNL     1      15.652  32.306  52.708  1.00  0.00    -0.504 OA
ATOM     15  H   UNL     1      15.432  33.139  52.249  1.00  0.00     0.293 HD
ENDBRANCH   4  14
TORSDOF 4
ENDMDL
MODEL 5
REMARK VINA RESULT:    -5.733      6.777      8.366
REMARK INTER + INTRA:          -6.882
REMARK INTER:                  -6.760
REMARK INTRA:                  -0.122
REMARK UNBOUND:                -0.144
REMARK SMILES O=C([O-])/C=C/c1ccc(O)c(O)c1
REMARK SMILES IDX 7 1 8 2 9 3 11 4 13 5 6 6 5 7 4 8 2 9 1 10 3 11 10 12 12 14
REMARK H PARENT 10 13 12 15
ROOT
ATOM      1  C   UNL     1      10.670  35.989  54.541  1.00  0.00     0.012 A 
ATOM      2  C   UNL     1       9.432  36.639  54.548  1.00  0.00     0.051 A 
ATOM      3  C   UNL     1       9.395  38.018  54.385  1.00  0.00     0.157 A 
ATOM      4  C   UNL     1      10.575  38.740  54.223  1.00  0.00     0.157 A 
ATOM      5  C   UNL     1      11.808  38.098  54.214  1.00  0.00     0.058 A 
ATOM      6  C   UNL     1      11.867  36.706  54.363  1.00  0.00    -0.022 A 
ENDROOT
BRANCH   6   7
ATOM      7  C   UNL     1      13.133  35.963  54.394  1.00  0.00     0.010 C 
ATOM      8  C   UNL     1      14.344  36.485  54.138  1.00  0.00     0.025 C 
BRANCH   8   9
ATOM      9  C   UNL     1      15.617  35.637  54.167  1.00  0.00     0.064 C 
ATOM     10  O   UNL     1      16.529  36.017  54.954  1.00  0.00    -0.545 OA
ATOM     11  O   UNL     1      15.587  34.645  53.385  1.00  0.00    -0.545 OA
ENDBRANCH   8   9
ENDBRANCH   6   7
BRANCH   3  12
ATOM     12  O   UNL     1       8.214  38.712  54.383  1.00  0.00    -0.504 OA
ATOM     13  H   UNL     1       8.408  39.613  54.074  1.00  0.00     0.293 HD
ENDBRANCH   3  12
BRANCH   4  14
ATOM     14  O   UNL     1      10.520  40.098  54.075  1.00  0.00    -0.504 OA
ATOM     15  H   UNL     1       9.643  40.259  53.679  1.00  0.00     0.293 HD
ENDBRANCH   4  14
TORSDOF 4
ENDMDL
MODEL 6
REMARK VINA RESULT:    -5.685      3.495      4.847
REMARK INTER + INTRA:          -6.825
REMARK INTER:                  -6.674
REMARK INTRA:                  -0.151
REMARK UNBOUND:                -0.144
REMARK SMILES O=C([O-])/C=C/c1ccc(O)c(O)c1
REMARK SMILES IDX 7 1 8 2 9 3 11 4 13 5 6 6 5 7 4 8 2 9 1 10 3 11 10 12 12 14
REMARK H PARENT 10 13 12 15
ROOT
ATOM      1  C   UNL     1      19.046  30.258  52.618  1.00  0.00     0.012 A 
ATOM      2  C   UNL     1      19.894  29.148  52.552  1.00  0.00     0.051 A 
ATOM      3  C   UNL     1      19.366  27.884  52.778  1.00  0.00     0.157 A 
ATOM      4  C   UNL     1      18.013  27.728  53.070  1.00  0.00     0.157 A 
ATOM      5  C   UNL     1      17.166  28.828  53.136  1.00  0.00     0.058 A 
ATOM      6  C   UNL     1      17.675  30.111  52.899  1.00  0.00    -0.022 A 
ENDROOT
BRANCH   6   7
ATOM      7  C   UNL     1      16.849  31.323  52.981  1.00  0.00     0.010 C 
ATOM      8  C   UNL     1      17.305  32.581  52.872  1.00  0.00     0.025 C 
BRANCH   8   9
ATOM      9  C   UNL     1      16.381  33.794  52.993  1.00  0.00     0.064 C 
ATOM     10  O   UNL     1      15.369  33.660  53.736  1.00  0.00    -0.545 OA
ATOM     11  O   UNL     1      16.764  34.794  52.322  1.00  0.00    -0.545 OA
ENDBRANCH   8   9
ENDBRANCH   6   7
BRANCH   3  12
ATOM     12  O   UNL     1      20.144  26.759  52.727  1.00  0.00    -0.504 OA
ATOM     13  H   UNL     1      20.009  26.275  53.559  1.00  0.00     0.293 HD
ENDBRANCH   3  12
BRANCH   4  14
ATOM     14  O   UNL     1      17.513  26.476  53.301  1.00  0.00    -0.504 OA
ATOM     15  H   UNL     1      16.798  26.381  52.643  1.00  0.00     0.293 HD
ENDBRANCH   4  14
TORSDOF 4
ENDMDL
MODEL 7
REMARK VINA RESULT:    -5.681      2.865      6.023
REMARK INTER + INTRA:          -6.821
REMARK INTER:                  -6.696
REMARK INTRA:                  -0.124
REMARK UNBOUND:                -0.144
REMARK SMILES O=C([O-])/C=C/c1ccc(O)c(O)c1
REMARK SMILES IDX 7 1 8 2 9 3 11 4 13 5 6 6 5 7 4 8 2 9 1 10 3 11 10 12 12 14
REMARK H PARENT 10 13 12 15
ROOT
ATOM      1  C   UNL     1      17.035  32.484  52.928  1.00  0.00     0.012 A 
ATOM      2  C   UNL     1      16.438  33.584  53.553  1.00  0.00     0.051 A 
ATOM      3  C   UNL     1      17.038  34.122  54.684  1.00  0.00     0.157 A 
ATOM      4  C   UNL     1      18.213  33.570  55.188  1.00  0.00     0.157 A 
ATOM      5  C   UNL     1      18.810  32.477  54.570  1.00  0.00     0.058 A 
ATOM      6  C   UNL     1      18.228  31.927  53.420  1.00  0.00    -0.022 A 
ENDROOT
BRANCH   6   7
ATOM      7  C   UNL     1      18.784  30.755  52.731  1.00  0.00     0.010 C 
ATOM      8  C   UNL     1      19.021  29.562  53.300  1.00  0.00     0.025 C 
BRANCH   8   9
ATOM      9  C   UNL     1      19.626  28.394  52.519  1.00  0.00     0.064 C 
ATOM     10  O   UNL     1      19.174  27.245  52.783  1.00  0.00    -0.545 OA
ATOM     11  O   UNL     1      20.517  28.741  51.692  1.00  0.00    -0.545 OA
ENDBRANCH   8   9
ENDBRANCH   6   7
BRANCH   3  12
ATOM     12  O   UNL     1      16.504  35.198  55.340  1.00  0.00    -0.504 OA
ATOM     13  H   UNL     1      16.699  35.988  54.808  1.00  0.00     0.293 HD
ENDBRANCH   3  12
BRANCH   4  14
ATOM     14  O   UNL     1      18.785  34.106  56.309  1.00  0.00    -0.504 OA
ATOM     15  H   UNL     1      18.049  34.159  56.948  1.00  0.00     0.293 HD
ENDBRANCH   4  14
TORSDOF 4
ENDMDL
MODEL 8
REMARK VINA RESULT:    -5.604     12.236     13.757
REMARK INTER + INTRA:          -6.731
REMARK INTER:                  -6.609
REMARK INTRA:                  -0.121
REMARK UNBOUND:                -0.144
REMARK SMILES O=C([O-])/C=C/c1ccc(O)c(O)c1
REMARK SMILES IDX 7 1 8 2 9 3 11 4 13 5 6 6 5 7 4 8 2 9 1 10 3 11 10 12 12 14
REMARK H PARENT 10 13 12 15
ROOT
ATOM      1  C   UNL     1       8.408  38.331  56.966  1.00  0.00     0.012 A 
ATOM      2  C   UNL     1       9.474  38.628  56.111  1.00  0.00     0.051 A 
ATOM      3  C   UNL     1       9.328  39.652  55.184  1.00  0.00     0.157 A 
ATOM      4  C   UNL     1       8.135  40.367  55.107  1.00  0.00     0.157 A 
ATOM      5  C   UNL     1       7.072  40.075  55.955  1.00  0.00     0.058 A 
ATOM      6  C   UNL     1       7.204  39.055  56.905  1.00  0.00    -0.022 A 
ENDROOT
BRANCH   6   7
ATOM      7  C   UNL     1       6.115  38.669  57.814  1.00  0.00     0.010 C 
ATOM      8  C   UNL     1       4.879  39.194  57.807  1.00  0.00     0.025 C 
BRANCH   8   9
ATOM      9  C   UNL     1       3.805  38.756  58.805  1.00  0.00     0.064 C 
ATOM     10  O   UNL     1       3.654  39.483  59.826  1.00  0.00    -0.545 OA
ATOM     11  O   UNL     1       3.195  37.702  58.465  1.00  0.00    -0.545 OA
ENDBRANCH   8   9
ENDBRANCH   6   7
BRANCH   3  12
ATOM     12  O   UNL     1      10.334  39.992  54.321  1.00  0.00    -0.504 OA
ATOM     13  H   UNL     1       9.934  40.497  53.593  1.00  0.00     0.293 HD
ENDBRANCH   3  12
BRANCH   4  14
ATOM     14  O   UNL     1       8.004  41.365  54.181  1.00  0.00    -0.504 OA
ATOM     15  H   UNL     1       8.267  40.944  53.340  1.00  0.00     0.293 HD
ENDBRANCH   4  14
TORSDOF 4
ENDMDL
MODEL 9
REMARK VINA RESULT:    -5.532      1.256      5.937
REMARK INTER + INTRA:          -6.645
REMARK INTER:                  -6.520
REMARK INTRA:                  -0.126
REMARK UNBOUND:                -0.144
REMARK SMILES O=C([O-])/C=C/c1ccc(O)c(O)c1
REMARK SMILES IDX 7 1 8 2 9 3 11 4 13 5 6 6 5 7 4 8 2 9 1 10 3 11 10 12 12 14
REMARK H PARENT 10 13 12 15
ROOT
ATOM      1  C   UNL     1      17.855  35.691  55.881  1.00  0.00     0.012 A 
ATOM      2  C   UNL     1      17.970  37.043  56.221  1.00  0.00     0.051 A 
ATOM      3  C   UNL     1      18.443  37.938  55.271  1.00  0.00     0.157 A 
ATOM      4  C   UNL     1      18.802  37.493  54.001  1.00  0.00     0.157 A 
ATOM      5  C   UNL     1      18.689  36.150  53.657  1.00  0.00     0.058 A 
ATOM      6  C   UNL     1      18.201  35.232  54.597  1.00  0.00    -0.022 A 
ENDROOT
BRANCH   6   7
ATOM      7  C   UNL     1      18.082  33.795  54.317  1.00  0.00     0.010 C 
ATOM      8  C   UNL     1      19.026  32.876  54.575  1.00  0.00     0.025 C 
BRANCH   8   9
ATOM      9  C   UNL     1      18.836  31.397  54.231  1.00  0.00     0.064 C 
ATOM     10  O   UNL     1      18.765  31.109  53.004  1.00  0.00    -0.545 OA
ATOM     11  O   UNL     1      18.778  30.643  55.243  1.00  0.00    -0.545 OA
ENDBRANCH   8   9
ENDBRANCH   6   7
BRANCH   3  12
ATOM     12  O   UNL     1      18.578  39.273  55.542  1.00  0.00    -0.504 OA
ATOM     13  H   UNL     1      19.338  39.598  55.029  1.00  0.00     0.293 HD
ENDBRANCH   3  12
BRANCH   4  14
ATOM     14  O   UNL     1      19.277  38.386  53.081  1.00  0.00    -0.504 OA
ATOM     15  H   UNL     1      19.600  37.826  52.350  1.00  0.00     0.293 HD
ENDBRANCH   4  14
TORSDOF 4
ENDMDL
