MODEL 1
REMARK VINA RESULT:    -6.246      0.000      0.000
REMARK INTER + INTRA:          -7.487
REMARK INTER:                  -7.341
REMARK INTRA:                  -0.146
REMARK UNBOUND:                -0.146
REMARK SMILES O=C([O-])/C=C/c1ccc(O)c(O)c1
REMARK SMILES IDX 7 1 8 2 9 3 11 4 13 5 6 6 5 7 4 8 2 9 1 10 3 11 10 12 12 14
REMARK H PARENT 10 13 12 15
ROOT
ATOM      1  C   UNL     1      17.421  33.875  53.395  1.00  0.00     0.012 A 
ATOM      2  C   UNL     1      16.922  32.571  53.317  1.00  0.00     0.051 A 
ATOM      3  C   UNL     1      17.593  31.553  53.981  1.00  0.00     0.157 A 
ATOM      4  C   UNL     1      18.747  31.829  54.710  1.00  0.00     0.157 A 
ATOM      5  C   UNL     1      19.247  33.124  54.791  1.00  0.00     0.058 A 
ATOM      6  C   UNL     1      18.578  34.168  54.139  1.00  0.00    -0.022 A 
ENDROOT
BRANCH   6   7
ATOM      7  C   UNL     1      19.063  35.554  54.155  1.00  0.00     0.010 C 
ATOM      8  C   UNL     1      18.329  36.635  53.843  1.00  0.00     0.025 C 
BRANCH   8   9
ATOM      9  C   UNL     1      18.914  38.048  53.860  1.00  0.00     0.064 C 
ATOM     10  O   UNL     1      19.862  38.275  53.057  1.00  0.00    -0.545 OA
ATOM     11  O   UNL     1      18.357  38.819  54.691  1.00  0.00    -0.545 OA
ENDBRANCH   8   9
ENDBRANCH   6   7
BRANCH   3  12
ATOM     12  O   UNL     1      17.154  30.257  53.943  1.00  0.00    -0.504 OA
ATOM     13  H   UNL     1      16.912  30.059  53.023  1.00  0.00     0.293 HD
ENDBRANCH   3  12
BRANCH   4  14
ATOM     14  O   UNL     1      19.401  30.812  55.349  1.00  0.00    -0.504 OA
ATOM     15  H   UNL     1      18.746  30.090  55.379  1.00  0.00     0.293 HD
ENDBRANCH   4  14
TORSDOF 4
ENDMDL
MODEL 2
REMARK VINA RESULT:    -6.143      3.202      4.250
REMARK INTER + INTRA:          -7.367
REMARK INTER:                  -7.247
REMARK INTRA:                  -0.119
REMARK UNBOUND:                -0.146
REMARK SMILES O=C([O-])/C=C/c1ccc(O)c(O)c1
REMARK SMILES IDX 7 1 8 2 9 3 11 4 13 5 6 6 5 7 4 8 2 9 1 10 3 11 10 12 12 14
REMARK H PARENT 10 13 12 15
ROOT
ATOM      1  C   UNL     1      17.104  29.323  53.340  1.00  0.00     0.012 A 
ATOM      2  C   UNL     1      17.770  28.094  53.345  1.00  0.00     0.051 A 
ATOM      3  C   UNL     1      19.105  28.050  52.964  1.00  0.00     0.157 A 
ATOM      4  C   UNL     1      19.766  29.214  52.579  1.00  0.00     0.157 A 
ATOM      5  C   UNL     1      19.108  30.439  52.573  1.00  0.00     0.058 A 
ATOM      6  C   UNL     1      17.765  30.507  52.967  1.00  0.00    -0.022 A 
ENDROOT
BRANCH   6   7
ATOM      7  C   UNL     1      16.997  31.759  52.957  1.00  0.00     0.010 C 
ATOM      8  C   UNL     1      17.478  32.966  53.297  1.00  0.00     0.025 C 
BRANCH   8   9
ATOM      9  C   UNL     1      16.605  34.222  53.284  1.00  0.00     0.064 C 
ATOM     10  O   UNL     1      16.706  34.968  52.271  1.00  0.00    -0.545 OA
ATOM     11  O   UNL     1      15.881  34.349  54.312  1.00  0.00    -0.545 OA
ENDBRANCH   8   9
ENDBRANCH   6   7
BRANCH   3  12
ATOM     12  O   UNL     1      19.812  26.878  52.948  1.00  0.00    -0.504 OA
ATOM     13  H   UNL     1      20.041  26.690  52.022  1.00  0.00     0.293 HD
ENDBRANCH   3  12
BRANCH   4  14
ATOM     14  O   UNL     1      21.077  29.151  52.196  1.00  0.00    -0.504 OA
ATOM     15  H   UNL     1      21.096  29.610  51.336  1.00  0.00     0.293 HD
ENDBRANCH   4  14
TORSDOF 4
ENDMDL
MODEL 3
REMARK VINA RESULT:    -5.822      3.262      4.429
REMARK INTER + INTRA:          -6.989
REMARK INTER:                  -6.869
REMARK INTRA:                  -0.120
REMARK UNBOUND:                -0.146
REMARK SMILES O=C([O-])/C=C/c1ccc(O)c(O)c1
REMARK SMILES IDX 7 1 8 2 9 3 11 4 13 5 6 6 5 7 4 8 2 9 1 10 3 11 10 12 12 14
REMARK H PARENT 10 13 12 15
ROOT
ATOM      1  C   UNL     1      16.971  29.570  52.857  1.00  0.00     0.012 A 
ATOM      2  C   UNL     1      16.628  28.217  52.773  1.00  0.00     0.051 A 
ATOM      3  C   UNL     1      17.583  27.260  53.089  1.00  0.00     0.157 A 
ATOM      4  C   UNL     1      18.864  27.645  53.479  1.00  0.00     0.157 A 
ATOM      5  C   UNL     1      19.209  28.989  53.564  1.00  0.00     0.058 A 
ATOM      6  C   UNL     1      18.256  29.971  53.262  1.00  0.00    -0.022 A 
ENDROOT
BRANCH   6   7
ATOM      7  C   UNL     1      18.557  31.409  53.301  1.00  0.00     0.010 C 
ATOM      8  C   UNL     1      18.394  32.205  54.369  1.00  0.00     0.025 C 
BRANCH   8   9
ATOM      9  C   UNL     1      18.707  33.702  54.323  1.00  0.00     0.064 C 
ATOM     10  O   UNL     1      17.826  34.447  53.809  1.00  0.00    -0.545 OA
ATOM     11  O   UNL     1      19.830  34.003  54.818  1.00  0.00    -0.545 OA
ENDBRANCH   8   9
ENDBRANCH   6   7
BRANCH   3  12
ATOM     12  O   UNL     1      17.309  25.920  53.027  1.00  0.00    -0.504 OA
ATOM     13  H   UNL     1      16.676  25.787  52.302  1.00  0.00     0.293 HD
ENDBRANCH   3  12
BRANCH   4  14
ATOM     14  O   UNL     1      19.795  26.689  53.776  1.00  0.00    -0.504 OA
ATOM     15  H   UNL     1      20.633  27.062  53.443  1.00  0.00     0.293 HD
ENDBRANCH   4  14
TORSDOF 4
ENDMDL
MODEL 4
REMARK VINA RESULT:    -5.812      0.924      2.150
REMARK INTER + INTRA:          -6.977
REMARK INTER:                  -6.858
REMARK INTRA:                  -0.119
REMARK UNBOUND:                -0.146
REMARK SMILES O=C([O-])/C=C/c1ccc(O)c(O)c1
REMARK SMILES IDX 7 1 8 2 9 3 11 4 13 5 6 6 5 7 4 8 2 9 1 10 3 11 10 12 12 14
REMARK H PARENT 10 13 12 15
ROOT
ATOM      1  C   UNL     1      19.058  33.141  54.586  1.00  0.00     0.012 A 
ATOM      2  C   UNL     1      18.747  31.803  54.328  1.00  0.00     0.051 A 
ATOM      3  C   UNL     1      17.628  31.509  53.559  1.00  0.00     0.157 A 
ATOM      4  C   UNL     1      16.828  32.534  53.059  1.00  0.00     0.157 A 
ATOM      5  C   UNL     1      17.134  33.866  53.313  1.00  0.00     0.058 A 
ATOM      6  C   UNL     1      18.266  34.185  54.075  1.00  0.00    -0.022 A 
ENDROOT
BRANCH   6   7
ATOM      7  C   UNL     1      18.636  35.566  54.410  1.00  0.00     0.010 C 
ATOM      8  C   UNL     1      18.627  36.600  53.553  1.00  0.00     0.025 C 
BRANCH   8   9
ATOM      9  C   UNL     1      19.050  38.009  53.973  1.00  0.00     0.064 C 
ATOM     10  O   UNL     1      18.296  38.603  54.792  1.00  0.00    -0.545 OA
ATOM     11  O   UNL     1      20.125  38.399  53.435  1.00  0.00    -0.545 OA
ENDBRANCH   8   9
ENDBRANCH   6   7
BRANCH   3  12
ATOM     12  O   UNL     1      17.270  30.219  53.270  1.00  0.00    -0.504 OA
ATOM     13  H   UNL     1      17.896  29.887  52.605  1.00  0.00     0.293 HD
ENDBRANCH   3  12
BRANCH   4  14
ATOM     14  O   UNL     1      15.724  32.226  52.314  1.00  0.00    -0.504 OA
ATOM     15  H   UNL     1      14.976  32.548  52.852  1.00  0.00     0.293 HD
ENDBRANCH   4  14
TORSDOF 4
ENDMDL
MODEL 5
REMARK VINA RESULT:    -5.750      6.745      8.251
REMARK INTER + INTRA:          -6.904
REMARK INTER:                  -6.784
REMARK INTRA:                  -0.120
REMARK UNBOUND:                -0.146
REMARK SMILES O=C([O-])/C=C/c1ccc(O)c(O)c1
REMARK SMILES IDX 7 1 8 2 9 3 11 4 13 5 6 6 5 7 4 8 2 9 1 10 3 11 10 12 12 14
REMARK H PARENT 10 13 12 15
ROOT
ATOM      1  C   UNL     1      10.790  35.886  54.428  1.00  0.00     0.012 A 
ATOM      2  C   UNL     1       9.531  36.494  54.396  1.00  0.00     0.051 A 
ATOM      3  C   UNL     1       9.454  37.876  54.284  1.00  0.00     0.157 A 
ATOM      4  C   UNL     1      10.615  38.643  54.210  1.00  0.00     0.157 A 
ATOM      5  C   UNL     1      11.869  38.042  54.241  1.00  0.00     0.058 A 
ATOM      6  C   UNL     1      11.968  36.648  54.341  1.00  0.00    -0.022 A 
ENDROOT
BRANCH   6   7
ATOM      7  C   UNL     1      13.257  35.946  54.410  1.00  0.00     0.010 C 
ATOM      8  C   UNL     1      14.439  36.457  54.030  1.00  0.00     0.025 C 
BRANCH   8   9
ATOM      9  C   UNL     1      15.737  35.652  54.110  1.00  0.00     0.064 C 
ATOM     10  O   UNL     1      16.024  34.944  53.105  1.00  0.00    -0.545 OA
ATOM     11  O   UNL     1      16.366  35.807  55.195  1.00  0.00    -0.545 OA
ENDBRANCH   8   9
ENDBRANCH   6   7
BRANCH   3  12
ATOM     12  O   UNL     1       8.252  38.531  54.246  1.00  0.00    -0.504 OA
ATOM     13  H   UNL     1       7.753  38.177  53.491  1.00  0.00     0.293 HD
ENDBRANCH   3  12
BRANCH   4  14
ATOM     14  O   UNL     1      10.521  40.003  54.111  1.00  0.00    -0.504 OA
ATOM     15  H   UNL     1      11.448  40.307  54.124  1.00  0.00     0.293 HD
ENDBRANCH   4  14
TORSDOF 4
ENDMDL
MODEL 6
REMARK VINA RESULT:    -5.673      3.866      4.514
REMARK INTER + INTRA:          -6.814
REMARK INTER:                  -6.694
REMARK INTRA:                  -0.121
REMARK UNBOUND:                -0.146
REMARK SMILES O=C([O-])/C=C/c1ccc(O)c(O)c1
REMARK SMILES IDX 7 1 8 2 9 3 11 4 13 5 6 6 5 7 4 8 2 9 1 10 3 11 10 12 12 14
REMARK H PARENT 10 13 12 15
ROOT
ATOM      1  C   UNL     1      16.897  34.496  53.628  1.00  0.00     0.012 A 
ATOM      2  C   UNL     1      18.062  33.789  53.943  1.00  0.00     0.051 A 
ATOM      3  C   UNL     1      18.583  33.888  55.226  1.00  0.00     0.157 A 
ATOM      4  C   UNL     1      17.956  34.684  56.181  1.00  0.00     0.157 A 
ATOM      5  C   UNL     1      16.797  35.388  55.874  1.00  0.00     0.058 A 
ATOM      6  C   UNL     1      16.247  35.292  54.589  1.00  0.00    -0.022 A 
ENDROOT
BRANCH   6   7
ATOM      7  C   UNL     1      15.044  36.029  54.182  1.00  0.00     0.010 C 
ATOM      8  C   UNL     1      13.845  35.946  54.781  1.00  0.00     0.025 C 
BRANCH   8   9
ATOM      9  C   UNL     1      12.630  36.730  54.281  1.00  0.00     0.064 C 
ATOM     10  O   UNL     1      12.819  37.948  54.005  1.00  0.00    -0.545 OA
ATOM     11  O   UNL     1      11.574  36.039  54.205  1.00  0.00    -0.545 OA
ENDBRANCH   8   9
ENDBRANCH   6   7
BRANCH   3  12
ATOM     12  O   UNL     1      19.720  33.221  55.595  1.00  0.00    -0.504 OA
ATOM     13  H   UNL     1      19.444  32.401  56.038  1.00  0.00     0.293 HD
ENDBRANCH   3  12
BRANCH   4  14
ATOM     14  O   UNL     1      18.489  34.779  57.437  1.00  0.00    -0.504 OA
ATOM     15  H   UNL     1      18.046  34.068  57.937  1.00  0.00     0.293 HD
ENDBRANCH   4  14
TORSDOF 4
ENDMDL
MODEL 7
REMARK VINA RESULT:    -5.583     12.276     13.822
REMARK INTER + INTRA:          -6.708
REMARK INTER:                  -6.586
REMARK INTRA:                  -0.122
REMARK UNBOUND:                -0.146
REMARK SMILES O=C([O-])/C=C/c1ccc(O)c(O)c1
REMARK SMILES IDX 7 1 8 2 9 3 11 4 13 5 6 6 5 7 4 8 2 9 1 10 3 11 10 12 12 14
REMARK H PARENT 10 13 12 15
ROOT
ATOM      1  C   UNL     1       8.557  38.698  57.073  1.00  0.00     0.012 A 
ATOM      2  C   UNL     1       9.572  38.964  56.149  1.00  0.00     0.051 A 
ATOM      3  C   UNL     1       9.348  39.908  55.156  1.00  0.00     0.157 A 
ATOM      4  C   UNL     1       8.127  40.575  55.081  1.00  0.00     0.157 A 
ATOM      5  C   UNL     1       7.115  40.315  55.998  1.00  0.00     0.058 A 
ATOM      6  C   UNL     1       7.326  39.375  57.016  1.00  0.00    -0.022 A 
ENDROOT
BRANCH   6   7
ATOM      7  C   UNL     1       6.293  39.026  58.001  1.00  0.00     0.010 C 
ATOM      8  C   UNL     1       4.971  39.028  57.771  1.00  0.00     0.025 C 
BRANCH   8   9
ATOM      9  C   UNL     1       3.955  38.675  58.859  1.00  0.00     0.064 C 
ATOM     10  O   UNL     1       3.286  37.618  58.684  1.00  0.00    -0.545 OA
ATOM     11  O   UNL     1       3.921  39.503  59.812  1.00  0.00    -0.545 OA
ENDBRANCH   8   9
ENDBRANCH   6   7
BRANCH   3  12
ATOM     12  O   UNL     1      10.302  40.213  54.223  1.00  0.00    -0.504 OA
ATOM     13  H   UNL     1      11.081  39.664  54.414  1.00  0.00     0.293 HD
ENDBRANCH   3  12
BRANCH   4  14
ATOM     14  O   UNL     1       7.920  41.494  54.090  1.00  0.00    -0.504 OA
ATOM     15  H   UNL     1       7.339  42.161  54.502  1.00  0.00     0.293 HD
ENDBRANCH   4  14
TORSDOF 4
ENDMDL
MODEL 8
REMARK VINA RESULT:    -5.493      2.653      6.567
REMARK INTER + INTRA:          -6.602
REMARK INTER:                  -6.481
REMARK INTRA:                  -0.121
REMARK UNBOUND:                -0.146
REMARK SMILES O=C([O-])/C=C/c1ccc(O)c(O)c1
REMARK SMILES IDX 7 1 8 2 9 3 11 4 13 5 6 6 5 7 4 8 2 9 1 10 3 11 10 12 12 14
REMARK H PARENT 10 13 12 15
ROOT
ATOM      1  C   UNL     1      17.149  31.945  52.793  1.00  0.00     0.012 A 
ATOM      2  C   UNL     1      17.018  33.282  53.180  1.00  0.00     0.051 A 
ATOM      3  C   UNL     1      17.902  33.800  54.119  1.00  0.00     0.157 A 
ATOM      4  C   UNL     1      18.898  32.996  54.667  1.00  0.00     0.157 A 
ATOM      5  C   UNL     1      19.032  31.666  54.285  1.00  0.00     0.058 A 
ATOM      6  C   UNL     1      18.160  31.127  53.330  1.00  0.00    -0.022 A 
ENDROOT
BRANCH   6   7
ATOM      7  C   UNL     1      18.221  29.724  52.900  1.00  0.00     0.010 C 
ATOM      8  C   UNL     1      18.361  28.669  53.717  1.00  0.00     0.025 C 
BRANCH   8   9
ATOM      9  C   UNL     1      18.441  27.235  53.189  1.00  0.00     0.064 C 
ATOM     10  O   UNL     1      17.529  26.877  52.392  1.00  0.00    -0.545 OA
ATOM     11  O   UNL     1      19.432  26.586  53.627  1.00  0.00    -0.545 OA
ENDBRANCH   8   9
ENDBRANCH   6   7
BRANCH   3  12
ATOM     12  O   UNL     1      17.826  35.101  54.538  1.00  0.00    -0.504 OA
ATOM     13  H   UNL     1      17.051  35.173  55.120  1.00  0.00     0.293 HD
ENDBRANCH   3  12
BRANCH   4  14
ATOM     14  O   UNL     1      19.752  33.520  55.598  1.00  0.00    -0.504 OA
ATOM     15  H   UNL     1      19.171  33.758  56.345  1.00  0.00     0.293 HD
ENDBRANCH   4  14
TORSDOF 4
ENDMDL
MODEL 9
REMARK VINA RESULT:    -5.465      2.258      3.141
REMARK INTER + INTRA:          -6.570
REMARK INTER:                  -6.445
REMARK INTRA:                  -0.125
REMARK UNBOUND:                -0.146
REMARK SMILES O=C([O-])/C=C/c1ccc(O)c(O)c1
REMARK SMILES IDX 7 1 8 2 9 3 11 4 13 5 6 6 5 7 4 8 2 9 1 10 3 11 10 12 12 14
REMARK H PARENT 10 13 12 15
ROOT
ATOM      1  C   UNL     1      17.473  30.596  52.903  1.00  0.00     0.012 A 
ATOM      2  C   UNL     1      17.819  29.321  53.363  1.00  0.00     0.051 A 
ATOM      3  C   UNL     1      17.940  29.110  54.730  1.00  0.00     0.157 A 
ATOM      4  C   UNL     1      17.724  30.154  55.627  1.00  0.00     0.157 A 
ATOM      5  C   UNL     1      17.379  31.423  55.174  1.00  0.00     0.058 A 
ATOM      6  C   UNL     1      17.239  31.654  53.799  1.00  0.00    -0.022 A 
ENDROOT
BRANCH   6   7
ATOM      7  C   UNL     1      16.907  32.974  53.245  1.00  0.00     0.010 C 
ATOM      8  C   UNL     1      17.330  34.149  53.739  1.00  0.00     0.025 C 
BRANCH   8   9
ATOM      9  C   UNL     1      16.920  35.486  53.118  1.00  0.00     0.064 C 
ATOM     10  O   UNL     1      16.922  36.488  53.886  1.00  0.00    -0.545 OA
ATOM     11  O   UNL     1      16.629  35.409  51.890  1.00  0.00    -0.545 OA
ENDBRANCH   8   9
ENDBRANCH   6   7
BRANCH   3  12
ATOM     12  O   UNL     1      18.275  27.885  55.243  1.00  0.00    -0.504 OA
ATOM     13  H   UNL     1      17.723  27.740  56.030  1.00  0.00     0.293 HD
ENDBRANCH   3  12
BRANCH   4  14
ATOM     14  O   UNL     1      17.858  29.930  56.969  1.00  0.00    -0.504 OA
ATOM     15  H   UNL     1      17.007  29.532  57.230  1.00  0.00     0.293 HD
ENDBRANCH   4  14
TORSDOF 4
ENDMDL
