MODEL 1
REMARK VINA RESULT:    -5.680      0.000      0.000
REMARK INTER + INTRA:          -7.244
REMARK INTER:                  -6.842
REMARK INTRA:                  -0.402
REMARK UNBOUND:                -0.402
REMARK SMILES O=C1O[C@H]([C@@H](O)CO)C([O-])=C1O
REMARK SMILES IDX 5 1 7 2 8 3 4 5 9 6 3 7 11 8 2 9 1 10 10 11 12 12 6 14
REMARK H PARENT 8 4 12 13 6 15
ROOT
ATOM      1  C   UNL     1      17.905  30.686  54.902  1.00  0.00     0.184 C 
ENDROOT
BRANCH   1   2
ATOM      2  C   UNL     1      18.507  32.022  54.451  1.00  0.00     0.192 C 
BRANCH   2   3
ATOM      3  O   UNL     1      19.672  32.294  55.248  1.00  0.00    -0.394 OA
ATOM      4  H   UNL     1      19.318  32.832  55.988  1.00  0.00     0.210 HD
ENDBRANCH   2   3
ENDBRANCH   1   2
BRANCH   1   5
ATOM      5  C   UNL     1      17.893  29.595  53.805  1.00  0.00     0.227 C 
ATOM      6  C   UNL     1      18.263  28.210  54.270  1.00  0.00    -0.037 C 
ATOM      7  O   UNL     1      18.849  29.913  52.777  1.00  0.00    -0.450 OA
ATOM      8  C   UNL     1      19.302  27.798  53.545  1.00  0.00     0.193 C 
ATOM      9  C   UNL     1      19.688  28.850  52.592  1.00  0.00     0.373 C 
ATOM     10  O   UNL     1      20.597  28.815  51.779  1.00  0.00    -0.243 OA
ATOM     11  O   UNL     1      17.585  27.695  55.199  1.00  0.00    -0.870 OA
BRANCH   8  12
ATOM     12  O   UNL     1      19.899  26.576  53.702  1.00  0.00    -0.502 OA
ATOM     13  H   UNL     1      19.135  25.984  53.526  1.00  0.00     0.293 HD
ENDBRANCH   8  12
ENDBRANCH   1   5
BRANCH   1  14
ATOM     14  O   UNL     1      18.632  30.247  56.071  1.00  0.00    -0.387 OA
ATOM     15  H   UNL     1      19.118  29.444  55.741  1.00  0.00     0.211 HD
ENDBRANCH   1  14
TORSDOF 5
ENDMDL
MODEL 2
REMARK VINA RESULT:    -5.464      4.359      6.523
REMARK INTER + INTRA:          -6.983
REMARK INTER:                  -6.438
REMARK INTRA:                  -0.545
REMARK UNBOUND:                -0.402
REMARK SMILES O=C1O[C@H]([C@@H](O)CO)C([O-])=C1O
REMARK SMILES IDX 5 1 7 2 8 3 4 5 9 6 3 7 11 8 2 9 1 10 10 11 12 12 6 14
REMARK H PARENT 8 4 12 13 6 15
ROOT
ATOM      1  C   UNL     1      18.604  36.982  55.127  1.00  0.00     0.184 C 
ENDROOT
BRANCH   1   2
ATOM      2  C   UNL     1      17.807  36.568  56.369  1.00  0.00     0.192 C 
BRANCH   2   3
ATOM      3  O   UNL     1      18.727  36.127  57.381  1.00  0.00    -0.394 OA
ATOM      4  H   UNL     1      19.590  36.468  57.065  1.00  0.00     0.210 HD
ENDBRANCH   2   3
ENDBRANCH   1   2
BRANCH   1   5
ATOM      5  C   UNL     1      18.813  35.843  54.101  1.00  0.00     0.227 C 
ATOM      6  C   UNL     1      17.587  35.445  53.320  1.00  0.00    -0.037 C 
ATOM      7  O   UNL     1      19.237  34.641  54.771  1.00  0.00    -0.450 OA
ATOM      8  C   UNL     1      17.377  34.145  53.520  1.00  0.00     0.193 C 
ATOM      9  C   UNL     1      18.406  33.612  54.425  1.00  0.00     0.373 C 
ATOM     10  O   UNL     1      18.518  32.465  54.825  1.00  0.00    -0.243 OA
ATOM     11  O   UNL     1      16.995  36.334  52.651  1.00  0.00    -0.870 OA
BRANCH   8  12
ATOM     12  O   UNL     1      16.341  33.449  52.956  1.00  0.00    -0.502 OA
ATOM     13  H   UNL     1      15.615  34.102  53.059  1.00  0.00     0.293 HD
ENDBRANCH   8  12
ENDBRANCH   1   5
BRANCH   1  14
ATOM     14  O   UNL     1      17.929  38.111  54.528  1.00  0.00    -0.387 OA
ATOM     15  H   UNL     1      17.046  38.110  54.987  1.00  0.00     0.211 HD
ENDBRANCH   1  14
TORSDOF 5
ENDMDL
MODEL 3
REMARK VINA RESULT:    -5.397      5.104      6.886
REMARK INTER + INTRA:          -6.903
REMARK INTER:                  -6.351
REMARK INTRA:                  -0.552
REMARK UNBOUND:                -0.402
REMARK SMILES O=C1O[C@H]([C@@H](O)CO)C([O-])=C1O
REMARK SMILES IDX 5 1 7 2 8 3 4 5 9 6 3 7 11 8 2 9 1 10 10 11 12 12 6 14
REMARK H PARENT 8 4 12 13 6 15
ROOT
ATOM      1  C   UNL     1      18.087  37.340  56.178  1.00  0.00     0.184 C 
ENDROOT
BRANCH   1   2
ATOM      2  C   UNL     1      19.111  37.842  55.154  1.00  0.00     0.192 C 
BRANCH   2   3
ATOM      3  O   UNL     1      18.471  38.796  54.292  1.00  0.00    -0.394 OA
ATOM      4  H   UNL     1      18.829  39.655  54.602  1.00  0.00     0.210 HD
ENDBRANCH   2   3
ENDBRANCH   1   2
BRANCH   1   5
ATOM      5  C   UNL     1      17.157  36.222  55.648  1.00  0.00     0.227 C 
ATOM      6  C   UNL     1      17.787  34.857  55.543  1.00  0.00    -0.037 C 
ATOM      7  O   UNL     1      16.715  36.534  54.315  1.00  0.00    -0.450 OA
ATOM      8  C   UNL     1      17.672  34.448  54.280  1.00  0.00     0.193 C 
ATOM      9  C   UNL     1      16.995  35.484  53.486  1.00  0.00     0.373 C 
ATOM     10  O   UNL     1      16.728  35.447  52.296  1.00  0.00    -0.243 OA
ATOM     11  O   UNL     1      18.285  34.351  56.585  1.00  0.00    -0.870 OA
BRANCH   8  12
ATOM     12  O   UNL     1      18.138  33.242  53.828  1.00  0.00    -0.502 OA
ATOM     13  H   UNL     1      17.422  33.003  53.200  1.00  0.00     0.293 HD
ENDBRANCH   8  12
ENDBRANCH   1   5
BRANCH   1  14
ATOM     14  O   UNL     1      18.813  36.906  57.351  1.00  0.00    -0.387 OA
ATOM     15  H   UNL     1      19.721  37.285  57.201  1.00  0.00     0.211 HD
ENDBRANCH   1  14
TORSDOF 5
ENDMDL
MODEL 4
REMARK VINA RESULT:    -5.359      3.566      6.899
REMARK INTER + INTRA:          -6.857
REMARK INTER:                  -6.725
REMARK INTRA:                  -0.131
REMARK UNBOUND:                -0.402
REMARK SMILES O=C1O[C@H]([C@@H](O)CO)C([O-])=C1O
REMARK SMILES IDX 5 1 7 2 8 3 4 5 9 6 3 7 11 8 2 9 1 10 10 11 12 12 6 14
REMARK H PARENT 8 4 12 13 6 15
ROOT
ATOM      1  C   UNL     1      18.850  33.161  54.774  1.00  0.00     0.184 C 
ENDROOT
BRANCH   1   2
ATOM      2  C   UNL     1      18.366  31.707  54.762  1.00  0.00     0.192 C 
BRANCH   2   3
ATOM      3  O   UNL     1      19.348  30.889  55.421  1.00  0.00    -0.394 OA
ATOM      4  H   UNL     1      19.336  31.222  56.343  1.00  0.00     0.210 HD
ENDBRANCH   2   3
ENDBRANCH   1   2
BRANCH   1   5
ATOM      5  C   UNL     1      17.795  34.175  55.277  1.00  0.00     0.227 C 
ATOM      6  C   UNL     1      17.525  35.335  54.353  1.00  0.00    -0.037 C 
ATOM      7  O   UNL     1      18.228  34.773  56.512  1.00  0.00    -0.450 OA
ATOM      8  C   UNL     1      17.758  36.460  55.028  1.00  0.00     0.193 C 
ATOM      9  C   UNL     1      18.197  36.134  56.393  1.00  0.00     0.373 C 
ATOM     10  O   UNL     1      18.499  36.917  57.280  1.00  0.00    -0.243 OA
ATOM     11  O   UNL     1      17.148  35.082  53.177  1.00  0.00    -0.870 OA
BRANCH   8  12
ATOM     12  O   UNL     1      17.610  37.711  54.491  1.00  0.00    -0.502 OA
ATOM     13  H   UNL     1      16.846  38.037  55.015  1.00  0.00     0.293 HD
ENDBRANCH   8  12
ENDBRANCH   1   5
BRANCH   1  14
ATOM     14  O   UNL     1      20.054  33.218  55.571  1.00  0.00    -0.387 OA
ATOM     15  H   UNL     1      20.595  33.913  55.107  1.00  0.00     0.211 HD
ENDBRANCH   1  14
TORSDOF 5
ENDMDL
MODEL 5
REMARK VINA RESULT:    -5.326      5.420      7.334
REMARK INTER + INTRA:          -6.817
REMARK INTER:                  -6.245
REMARK INTRA:                  -0.572
REMARK UNBOUND:                -0.402
REMARK SMILES O=C1O[C@H]([C@@H](O)CO)C([O-])=C1O
REMARK SMILES IDX 5 1 7 2 8 3 4 5 9 6 3 7 11 8 2 9 1 10 10 11 12 12 6 14
REMARK H PARENT 8 4 12 13 6 15
ROOT
ATOM      1  C   UNL     1      16.668  35.867  53.000  1.00  0.00     0.184 C 
ENDROOT
BRANCH   1   2
ATOM      2  C   UNL     1      15.364  35.787  53.803  1.00  0.00     0.192 C 
BRANCH   2   3
ATOM      3  O   UNL     1      14.854  37.117  53.988  1.00  0.00    -0.394 OA
ATOM      4  H   UNL     1      14.273  37.246  53.209  1.00  0.00     0.210 HD
ENDBRANCH   2   3
ENDBRANCH   1   2
BRANCH   1   5
ATOM      5  C   UNL     1      17.942  35.977  53.872  1.00  0.00     0.227 C 
ATOM      6  C   UNL     1      18.203  34.804  54.782  1.00  0.00    -0.037 C 
ATOM      7  O   UNL     1      17.850  37.117  54.746  1.00  0.00    -0.450 OA
ATOM      8  C   UNL     1      18.277  35.263  56.031  1.00  0.00     0.193 C 
ATOM      9  C   UNL     1      18.064  36.718  56.036  1.00  0.00     0.373 C 
ATOM     10  O   UNL     1      18.061  37.462  57.003  1.00  0.00    -0.243 OA
ATOM     11  O   UNL     1      18.304  33.661  54.263  1.00  0.00    -0.870 OA
BRANCH   8  12
ATOM     12  O   UNL     1      18.508  34.465  57.119  1.00  0.00    -0.502 OA
ATOM     13  H   UNL     1      19.168  33.842  56.742  1.00  0.00     0.293 HD
ENDBRANCH   8  12
ENDBRANCH   1   5
BRANCH   1  14
ATOM     14  O   UNL     1      16.723  34.711  52.134  1.00  0.00    -0.387 OA
ATOM     15  H   UNL     1      16.586  35.106  51.231  1.00  0.00     0.211 HD
ENDBRANCH   1  14
TORSDOF 5
ENDMDL
MODEL 6
REMARK VINA RESULT:    -5.290      1.470      2.394
REMARK INTER + INTRA:          -6.774
REMARK INTER:                  -6.170
REMARK INTRA:                  -0.604
REMARK UNBOUND:                -0.402
REMARK SMILES O=C1O[C@H]([C@@H](O)CO)C([O-])=C1O
REMARK SMILES IDX 5 1 7 2 8 3 4 5 9 6 3 7 11 8 2 9 1 10 10 11 12 12 6 14
REMARK H PARENT 8 4 12 13 6 15
ROOT
ATOM      1  C   UNL     1      17.204  28.126  55.489  1.00  0.00     0.184 C 
ENDROOT
BRANCH   1   2
ATOM      2  C   UNL     1      16.876  29.443  56.201  1.00  0.00     0.192 C 
BRANCH   2   3
ATOM      3  O   UNL     1      18.103  30.137  56.476  1.00  0.00    -0.394 OA
ATOM      4  H   UNL     1      18.369  29.787  57.352  1.00  0.00     0.210 HD
ENDBRANCH   2   3
ENDBRANCH   1   2
BRANCH   1   5
ATOM      5  C   UNL     1      17.511  28.282  53.980  1.00  0.00     0.227 C 
ATOM      6  C   UNL     1      18.892  27.855  53.556  1.00  0.00    -0.037 C 
ATOM      7  O   UNL     1      17.409  29.664  53.592  1.00  0.00    -0.450 OA
ATOM      8  C   UNL     1      19.479  28.896  52.965  1.00  0.00     0.193 C 
ATOM      9  C   UNL     1      18.564  30.046  52.969  1.00  0.00     0.373 C 
ATOM     10  O   UNL     1      18.774  31.160  52.517  1.00  0.00    -0.243 OA
ATOM     11  O   UNL     1      19.251  26.673  53.805  1.00  0.00    -0.870 OA
BRANCH   8  12
ATOM     12  O   UNL     1      20.749  28.859  52.454  1.00  0.00    -0.502 OA
ATOM     13  H   UNL     1      20.897  29.816  52.287  1.00  0.00     0.293 HD
ENDBRANCH   8  12
ENDBRANCH   1   5
BRANCH   1  14
ATOM     14  O   UNL     1      18.310  27.512  56.188  1.00  0.00    -0.387 OA
ATOM     15  H   UNL     1      19.102  27.850  55.690  1.00  0.00     0.211 HD
ENDBRANCH   1  14
TORSDOF 5
ENDMDL
MODEL 7
REMARK VINA RESULT:    -5.261      5.379      6.929
REMARK INTER + INTRA:          -6.738
REMARK INTER:                  -6.204
REMARK INTRA:                  -0.534
REMARK UNBOUND:                -0.402
REMARK SMILES O=C1O[C@H]([C@@H](O)CO)C([O-])=C1O
REMARK SMILES IDX 5 1 7 2 8 3 4 5 9 6 3 7 11 8 2 9 1 10 10 11 12 12 6 14
REMARK H PARENT 8 4 12 13 6 15
ROOT
ATOM      1  C   UNL     1      17.950  36.701  53.382  1.00  0.00     0.184 C 
ENDROOT
BRANCH   1   2
ATOM      2  C   UNL     1      18.797  37.961  53.597  1.00  0.00     0.192 C 
BRANCH   2   3
ATOM      3  O   UNL     1      18.345  38.621  54.791  1.00  0.00    -0.394 OA
ATOM      4  H   UNL     1      17.385  38.741  54.632  1.00  0.00     0.210 HD
ENDBRANCH   2   3
ENDBRANCH   1   2
BRANCH   1   5
ATOM      5  C   UNL     1      18.440  35.466  54.175  1.00  0.00     0.227 C 
ATOM      6  C   UNL     1      17.428  34.361  54.336  1.00  0.00    -0.037 C 
ATOM      7  O   UNL     1      18.797  35.846  55.516  1.00  0.00    -0.450 OA
ATOM      8  C   UNL     1      17.270  34.137  55.640  1.00  0.00     0.193 C 
ATOM      9  C   UNL     1      18.126  35.055  56.406  1.00  0.00     0.373 C 
ATOM     10  O   UNL     1      18.230  35.130  57.620  1.00  0.00    -0.243 OA
ATOM     11  O   UNL     1      16.928  33.858  53.294  1.00  0.00    -0.870 OA
BRANCH   8  12
ATOM     12  O   UNL     1      16.420  33.191  56.148  1.00  0.00    -0.502 OA
ATOM     13  H   UNL     1      16.082  33.667  56.938  1.00  0.00     0.293 HD
ENDBRANCH   8  12
ENDBRANCH   1   5
BRANCH   1  14
ATOM     14  O   UNL     1      16.582  37.029  53.713  1.00  0.00    -0.387 OA
ATOM     15  H   UNL     1      16.650  37.328  54.660  1.00  0.00     0.211 HD
ENDBRANCH   1  14
TORSDOF 5
ENDMDL
MODEL 8
REMARK VINA RESULT:    -5.215      6.220      8.036
REMARK INTER + INTRA:          -6.683
REMARK INTER:                  -6.064
REMARK INTRA:                  -0.619
REMARK UNBOUND:                -0.402
REMARK SMILES O=C1O[C@H]([C@@H](O)CO)C([O-])=C1O
REMARK SMILES IDX 5 1 7 2 8 3 4 5 9 6 3 7 11 8 2 9 1 10 10 11 12 12 6 14
REMARK H PARENT 8 4 12 13 6 15
ROOT
ATOM      1  C   UNL     1      16.991  34.909  54.625  1.00  0.00     0.184 C 
ENDROOT
BRANCH   1   2
ATOM      2  C   UNL     1      17.031  34.203  53.264  1.00  0.00     0.192 C 
BRANCH   2   3
ATOM      3  O   UNL     1      16.686  35.153  52.242  1.00  0.00    -0.394 OA
ATOM      4  H   UNL     1      17.384  35.837  52.326  1.00  0.00     0.210 HD
ENDBRANCH   2   3
ENDBRANCH   1   2
BRANCH   1   5
ATOM      5  C   UNL     1      18.282  35.690  54.970  1.00  0.00     0.227 C 
ATOM      6  C   UNL     1      18.079  36.936  55.793  1.00  0.00    -0.037 C 
ATOM      7  O   UNL     1      18.929  36.138  53.765  1.00  0.00    -0.450 OA
ATOM      8  C   UNL     1      18.594  37.962  55.117  1.00  0.00     0.193 C 
ATOM      9  C   UNL     1      19.142  37.486  53.838  1.00  0.00     0.373 C 
ATOM     10  O   UNL     1      19.683  38.153  52.971  1.00  0.00    -0.243 OA
ATOM     11  O   UNL     1      17.501  36.824  56.907  1.00  0.00    -0.870 OA
BRANCH   8  12
ATOM     12  O   UNL     1      18.584  39.253  55.575  1.00  0.00    -0.502 OA
ATOM     13  H   UNL     1      18.923  39.117  56.487  1.00  0.00     0.293 HD
ENDBRANCH   8  12
ENDBRANCH   1   5
BRANCH   1  14
ATOM     14  O   UNL     1      15.834  35.774  54.638  1.00  0.00    -0.387 OA
ATOM     15  H   UNL     1      15.911  36.261  53.773  1.00  0.00     0.211 HD
ENDBRANCH   1  14
TORSDOF 5
ENDMDL
MODEL 9
REMARK VINA RESULT:    -5.189      5.831      7.507
REMARK INTER + INTRA:          -6.652
REMARK INTER:                  -6.096
REMARK INTRA:                  -0.556
REMARK UNBOUND:                -0.402
REMARK SMILES O=C1O[C@H]([C@@H](O)CO)C([O-])=C1O
REMARK SMILES IDX 5 1 7 2 8 3 4 5 9 6 3 7 11 8 2 9 1 10 10 11 12 12 6 14
REMARK H PARENT 8 4 12 13 6 15
ROOT
ATOM      1  C   UNL     1      16.314  35.666  53.407  1.00  0.00     0.184 C 
ENDROOT
BRANCH   1   2
ATOM      2  C   UNL     1      16.447  34.139  53.381  1.00  0.00     0.192 C 
BRANCH   2   3
ATOM      3  O   UNL     1      15.190  33.560  53.770  1.00  0.00    -0.394 OA
ATOM      4  H   UNL     1      14.962  34.048  54.589  1.00  0.00     0.210 HD
ENDBRANCH   2   3
ENDBRANCH   1   2
BRANCH   1   5
ATOM      5  C   UNL     1      16.653  36.308  54.773  1.00  0.00     0.227 C 
ATOM      6  C   UNL     1      17.951  35.859  55.392  1.00  0.00    -0.037 C 
ATOM      7  O   UNL     1      15.641  35.977  55.742  1.00  0.00    -0.450 OA
ATOM      8  C   UNL     1      17.679  35.358  56.597  1.00  0.00     0.193 C 
ATOM      9  C   UNL     1      16.231  35.427  56.845  1.00  0.00     0.373 C 
ATOM     10  O   UNL     1      15.633  35.055  57.841  1.00  0.00    -0.243 OA
ATOM     11  O   UNL     1      19.010  36.014  54.728  1.00  0.00    -0.870 OA
BRANCH   8  12
ATOM     12  O   UNL     1      18.633  34.856  57.442  1.00  0.00    -0.502 OA
ATOM     13  H   UNL     1      18.064  34.370  58.078  1.00  0.00     0.293 HD
ENDBRANCH   8  12
ENDBRANCH   1   5
BRANCH   1  14
ATOM     14  O   UNL     1      17.152  36.197  52.355  1.00  0.00    -0.387 OA
ATOM     15  H   UNL     1      18.070  35.978  52.672  1.00  0.00     0.211 HD
ENDBRANCH   1  14
TORSDOF 5
ENDMDL
