MODEL 1
REMARK VINA RESULT:    -8.775      0.000      0.000
REMARK INTER + INTRA:         -15.821
REMARK INTER:                 -14.674
REMARK INTRA:                  -1.147
REMARK UNBOUND:                -1.147
REMARK SMILES C[C@@H]1O[C@@H](OC[C@H]2O[C@@H](OCC(O)c3ccc(O)c(O)c3)[C@H](O)[C@@H](O)[C@@H]2O)[C@H](O)[C@H](O)[C@H]1O
REMARK SMILES IDX 7 1 26 2 24 3 22 4 9 5 8 6 6 7 5 8 4 9 2 10 32 11 3 12 30 13
REMARK SMILES IDX 28 14 1 15 33 16 31 18 29 20 27 22 25 24 10 26 11 27 12 28
REMARK SMILES IDX 14 29 21 30 15 31 19 32 16 33 17 34 20 35 18 37 13 39 23 41
REMARK H PARENT 33 17 31 19 29 21 27 23 25 25 20 36 18 38 13 40 23 42
ROOT
ATOM      1  C   UNL     1      17.528  32.297  54.768  1.00  0.00     0.178 C 
ATOM      2  C   UNL     1      18.533  33.392  55.154  1.00  0.00     0.177 C 
ATOM      3  C   UNL     1      18.533  34.493  54.095  1.00  0.00     0.179 C 
ATOM      4  C   UNL     1      17.117  35.006  53.864  1.00  0.00     0.202 C 
ATOM      5  C   UNL     1      16.186  33.825  53.526  1.00  0.00     0.282 C 
ATOM      6  O   UNL     1      16.212  32.862  54.581  1.00  0.00    -0.341 OA
ENDROOT
BRANCH   1   7
ATOM      7  C   UNL     1      17.458  31.220  55.863  1.00  0.00     0.198 C 
BRANCH   7   8
ATOM      8  O   UNL     1      17.487  29.927  55.248  1.00  0.00    -0.347 OA
BRANCH   8   9
ATOM      9  C   UNL     1      18.089  29.938  53.950  1.00  0.00     0.281 C 
ATOM     10  C   UNL     1      16.580  28.287  53.086  1.00  0.00     0.150 C 
ATOM     11  C   UNL     1      17.703  27.252  52.911  1.00  0.00     0.174 C 
ATOM     12  O   UNL     1      17.089  29.617  52.969  1.00  0.00    -0.344 OA
ATOM     13  C   UNL     1      18.813  27.528  53.936  1.00  0.00     0.179 C 
ATOM     14  C   UNL     1      19.292  28.977  53.851  1.00  0.00     0.202 C 
ATOM     15  C   UNL     1      15.493  28.126  52.029  1.00  0.00     0.041 C 
BRANCH  11  16
ATOM     16  O   UNL     1      17.221  25.904  53.082  1.00  0.00    -0.388 OA
ATOM     17  H   UNL     1      17.559  25.405  52.313  1.00  0.00     0.211 HD
ENDBRANCH  11  16
BRANCH  13  18
ATOM     18  O   UNL     1      19.931  26.657  53.684  1.00  0.00    -0.387 OA
ATOM     19  H   UNL     1      20.306  26.950  52.829  1.00  0.00     0.211 HD
ENDBRANCH  13  18
BRANCH  14  20
ATOM     20  O   UNL     1      20.008  29.161  52.617  1.00  0.00    -0.385 OA
ATOM     21  H   UNL     1      20.950  29.206  52.883  1.00  0.00     0.211 HD
ENDBRANCH  14  20
ENDBRANCH   8   9
ENDBRANCH   7   8
ENDBRANCH   1   7
BRANCH   2  22
ATOM     22  O   UNL     1      19.855  32.863  55.277  1.00  0.00    -0.387 OA
ATOM     23  H   UNL     1      19.748  31.890  55.232  1.00  0.00     0.211 HD
ENDBRANCH   2  22
BRANCH   3  24
ATOM     24  O   UNL     1      19.389  35.560  54.529  1.00  0.00    -0.387 OA
ATOM     25  H   UNL     1      19.739  35.269  55.396  1.00  0.00     0.211 HD
ENDBRANCH   3  24
BRANCH   5  26
ATOM     26  O   UNL     1      14.876  34.385  53.392  1.00  0.00    -0.347 OA
BRANCH  26  27
ATOM     27  C   UNL     1      14.270  34.801  54.621  1.00  0.00     0.200 C 
BRANCH  27  28
ATOM     28  C   UNL     1      13.845  36.284  54.699  1.00  0.00     0.170 C 
BRANCH  28  29
ATOM     29  C   UNL     1      12.380  36.625  54.495  1.00  0.00    -0.013 A 
ATOM     30  C   UNL     1      12.028  37.979  54.334  1.00  0.00     0.056 A 
ATOM     31  C   UNL     1      11.352  35.667  54.493  1.00  0.00     0.010 A 
ATOM     32  C   UNL     1      10.700  38.346  54.141  1.00  0.00     0.157 A 
ATOM     33  C   UNL     1      10.015  36.044  54.319  1.00  0.00     0.050 A 
ATOM     34  C   UNL     1       9.701  37.382  54.143  1.00  0.00     0.157 A 
BRANCH  32  35
ATOM     35  O   UNL     1      10.340  39.647  53.917  1.00  0.00    -0.504 OA
ATOM     36  H   UNL     1       9.552  39.838  54.475  1.00  0.00     0.293 HD
ENDBRANCH  32  35
BRANCH  34  37
ATOM     37  O   UNL     1       8.398  37.745  53.964  1.00  0.00    -0.504 OA
ATOM     38  H   UNL     1       8.378  38.699  54.178  1.00  0.00     0.293 HD
ENDBRANCH  34  37
ENDBRANCH  28  29
BRANCH  28  39
ATOM     39  O   UNL     1      14.651  37.063  53.810  1.00  0.00    -0.386 OA
ATOM     40  H   UNL     1      14.121  37.182  52.993  1.00  0.00     0.211 HD
ENDBRANCH  28  39
ENDBRANCH  27  28
ENDBRANCH  26  27
ENDBRANCH   5  26
BRANCH   4  41
ATOM     41  O   UNL     1      17.143  35.977  52.805  1.00  0.00    -0.385 OA
ATOM     42  H   UNL     1      17.773  36.663  53.102  1.00  0.00     0.211 HD
ENDBRANCH   4  41
TORSDOF 16
ENDMDL
MODEL 2
REMARK VINA RESULT:    -8.702      1.646      1.931
REMARK INTER + INTRA:         -15.699
REMARK INTER:                 -14.623
REMARK INTRA:                  -1.075
REMARK UNBOUND:                -1.147
REMARK SMILES C[C@@H]1O[C@@H](OC[C@H]2O[C@@H](OCC(O)c3ccc(O)c(O)c3)[C@H](O)[C@@H](O)[C@@H]2O)[C@H](O)[C@H](O)[C@H]1O
REMARK SMILES IDX 7 1 26 2 24 3 22 4 9 5 8 6 6 7 5 8 4 9 2 10 32 11 3 12 30 13
REMARK SMILES IDX 28 14 1 15 33 16 31 18 29 20 27 22 25 24 10 26 11 27 12 28
REMARK SMILES IDX 14 29 21 30 15 31 19 32 16 33 17 34 20 35 18 37 13 39 23 41
REMARK H PARENT 33 17 31 19 29 21 27 23 25 25 20 36 18 38 13 40 23 42
ROOT
ATOM      1  C   UNL     1      17.599  33.790  54.010  1.00  0.00     0.178 C 
ATOM      2  C   UNL     1      18.353  33.609  55.335  1.00  0.00     0.177 C 
ATOM      3  C   UNL     1      18.207  34.866  56.191  1.00  0.00     0.179 C 
ATOM      4  C   UNL     1      16.736  35.225  56.360  1.00  0.00     0.202 C 
ATOM      5  C   UNL     1      16.069  35.341  54.977  1.00  0.00     0.282 C 
ATOM      6  O   UNL     1      16.213  34.114  54.258  1.00  0.00    -0.341 OA
ENDROOT
BRANCH   1   7
ATOM      7  C   UNL     1      17.669  32.505  53.170  1.00  0.00     0.198 C 
BRANCH   7   8
ATOM      8  O   UNL     1      17.573  31.372  54.043  1.00  0.00    -0.347 OA
BRANCH   8   9
ATOM      9  C   UNL     1      18.235  30.213  53.530  1.00  0.00     0.281 C 
ATOM     10  C   UNL     1      16.186  29.005  53.235  1.00  0.00     0.150 C 
ATOM     11  C   UNL     1      16.560  27.972  54.312  1.00  0.00     0.174 C 
ATOM     12  O   UNL     1      17.356  29.540  52.614  1.00  0.00    -0.344 OA
ATOM     13  C   UNL     1      17.500  28.624  55.336  1.00  0.00     0.179 C 
ATOM     14  C   UNL     1      18.707  29.261  54.648  1.00  0.00     0.202 C 
ATOM     15  C   UNL     1      15.333  28.387  52.132  1.00  0.00     0.041 C 
BRANCH  11  16
ATOM     16  O   UNL     1      15.396  27.460  54.991  1.00  0.00    -0.388 OA
ATOM     17  H   UNL     1      15.322  26.526  54.717  1.00  0.00     0.211 HD
ENDBRANCH  11  16
BRANCH  13  18
ATOM     18  O   UNL     1      17.970  27.628  56.263  1.00  0.00    -0.387 OA
ATOM     19  H   UNL     1      18.503  27.004  55.732  1.00  0.00     0.211 HD
ENDBRANCH  13  18
BRANCH  14  20
ATOM     20  O   UNL     1      19.551  28.219  54.127  1.00  0.00    -0.385 OA
ATOM     21  H   UNL     1      19.781  28.518  53.222  1.00  0.00     0.211 HD
ENDBRANCH  14  20
ENDBRANCH   8   9
ENDBRANCH   7   8
ENDBRANCH   1   7
BRANCH   2  22
ATOM     22  O   UNL     1      19.741  33.355  55.112  1.00  0.00    -0.387 OA
ATOM     23  H   UNL     1      20.133  34.229  54.908  1.00  0.00     0.211 HD
ENDBRANCH   2  22
BRANCH   3  24
ATOM     24  O   UNL     1      18.818  34.634  57.470  1.00  0.00    -0.387 OA
ATOM     25  H   UNL     1      19.779  34.581  57.287  1.00  0.00     0.211 HD
ENDBRANCH   3  24
BRANCH   5  26
ATOM     26  O   UNL     1      14.686  35.611  55.230  1.00  0.00    -0.347 OA
BRANCH  26  27
ATOM     27  C   UNL     1      13.976  36.196  54.132  1.00  0.00     0.200 C 
BRANCH  27  28
ATOM     28  C   UNL     1      13.011  37.349  54.486  1.00  0.00     0.170 C 
BRANCH  28  29
ATOM     29  C   UNL     1      11.518  37.092  54.395  1.00  0.00    -0.013 A 
ATOM     30  C   UNL     1      10.658  38.201  54.270  1.00  0.00     0.056 A 
ATOM     31  C   UNL     1      10.944  35.812  54.464  1.00  0.00     0.010 A 
ATOM     32  C   UNL     1       9.282  38.021  54.179  1.00  0.00     0.157 A 
ATOM     33  C   UNL     1       9.557  35.638  54.394  1.00  0.00     0.050 A 
ATOM     34  C   UNL     1       8.737  36.745  54.251  1.00  0.00     0.157 A 
BRANCH  32  35
ATOM     35  O   UNL     1       8.431  39.075  53.992  1.00  0.00    -0.504 OA
ATOM     36  H   UNL     1       8.732  39.809  54.576  1.00  0.00     0.293 HD
ENDBRANCH  32  35
BRANCH  34  37
ATOM     37  O   UNL     1       7.386  36.572  54.173  1.00  0.00    -0.504 OA
ATOM     38  H   UNL     1       7.219  36.370  53.231  1.00  0.00     0.293 HD
ENDBRANCH  34  37
ENDBRANCH  28  29
BRANCH  28  39
ATOM     39  O   UNL     1      13.349  38.511  53.723  1.00  0.00    -0.386 OA
ATOM     40  H   UNL     1      14.323  38.487  53.603  1.00  0.00     0.211 HD
ENDBRANCH  28  39
ENDBRANCH  27  28
ENDBRANCH  26  27
ENDBRANCH   5  26
BRANCH   4  41
ATOM     41  O   UNL     1      16.641  36.455  57.097  1.00  0.00    -0.385 OA
ATOM     42  H   UNL     1      15.771  36.831  56.856  1.00  0.00     0.211 HD
ENDBRANCH   4  41
TORSDOF 16
ENDMDL
MODEL 3
REMARK VINA RESULT:    -8.658      1.749      2.223
REMARK INTER + INTRA:         -15.626
REMARK INTER:                 -14.548
REMARK INTRA:                  -1.079
REMARK UNBOUND:                -1.147
REMARK SMILES C[C@@H]1O[C@@H](OC[C@H]2O[C@@H](OCC(O)c3ccc(O)c(O)c3)[C@H](O)[C@@H](O)[C@@H]2O)[C@H](O)[C@H](O)[C@H]1O
REMARK SMILES IDX 7 1 26 2 24 3 22 4 9 5 8 6 6 7 5 8 4 9 2 10 32 11 3 12 30 13
REMARK SMILES IDX 28 14 1 15 33 16 31 18 29 20 27 22 25 24 10 26 11 27 12 28
REMARK SMILES IDX 14 29 21 30 15 31 19 32 16 33 17 34 20 35 18 37 13 39 23 41
REMARK H PARENT 33 17 31 19 29 21 27 23 25 25 20 36 18 38 13 40 23 42
ROOT
ATOM      1  C   UNL     1      17.622  33.800  54.017  1.00  0.00     0.178 C 
ATOM      2  C   UNL     1      18.343  33.620  55.361  1.00  0.00     0.177 C 
ATOM      3  C   UNL     1      18.166  34.872  56.217  1.00  0.00     0.179 C 
ATOM      4  C   UNL     1      16.688  35.219  56.350  1.00  0.00     0.202 C 
ATOM      5  C   UNL     1      16.055  35.334  54.950  1.00  0.00     0.282 C 
ATOM      6  O   UNL     1      16.228  34.111  54.231  1.00  0.00    -0.341 OA
ENDROOT
BRANCH   1   7
ATOM      7  C   UNL     1      17.724  32.518  53.175  1.00  0.00     0.198 C 
BRANCH   7   8
ATOM      8  O   UNL     1      17.679  31.382  54.048  1.00  0.00    -0.347 OA
BRANCH   8   9
ATOM      9  C   UNL     1      16.888  30.309  53.529  1.00  0.00     0.281 C 
ATOM     10  C   UNL     1      16.456  29.396  55.703  1.00  0.00     0.150 C 
ATOM     11  C   UNL     1      17.258  28.119  55.402  1.00  0.00     0.174 C 
ATOM     12  O   UNL     1      15.900  29.943  54.506  1.00  0.00    -0.344 OA
ATOM     13  C   UNL     1      18.345  28.434  54.363  1.00  0.00     0.179 C 
ATOM     14  C   UNL     1      17.743  29.091  53.121  1.00  0.00     0.202 C 
ATOM     15  C   UNL     1      15.296  29.123  56.655  1.00  0.00     0.041 C 
BRANCH  11  16
ATOM     16  O   UNL     1      17.876  27.581  56.589  1.00  0.00    -0.388 OA
ATOM     17  H   UNL     1      17.638  28.196  57.310  1.00  0.00     0.211 HD
ENDBRANCH  11  16
BRANCH  13  18
ATOM     18  O   UNL     1      19.003  27.217  53.968  1.00  0.00    -0.387 OA
ATOM     19  H   UNL     1      18.647  26.521  54.556  1.00  0.00     0.211 HD
ENDBRANCH  13  18
BRANCH  14  20
ATOM     20  O   UNL     1      16.960  28.117  52.409  1.00  0.00    -0.385 OA
ATOM     21  H   UNL     1      16.048  28.240  52.747  1.00  0.00     0.211 HD
ENDBRANCH  14  20
ENDBRANCH   8   9
ENDBRANCH   7   8
ENDBRANCH   1   7
BRANCH   2  22
ATOM     22  O   UNL     1      19.739  33.378  55.172  1.00  0.00    -0.387 OA
ATOM     23  H   UNL     1      19.788  32.553  54.646  1.00  0.00     0.211 HD
ENDBRANCH   2  22
BRANCH   3  24
ATOM     24  O   UNL     1      18.745  34.641  57.510  1.00  0.00    -0.387 OA
ATOM     25  H   UNL     1      18.649  35.491  57.988  1.00  0.00     0.211 HD
ENDBRANCH   3  24
BRANCH   5  26
ATOM     26  O   UNL     1      14.665  35.593  55.169  1.00  0.00    -0.347 OA
BRANCH  26  27
ATOM     27  C   UNL     1      13.993  36.237  54.079  1.00  0.00     0.200 C 
BRANCH  27  28
ATOM     28  C   UNL     1      13.019  37.373  54.461  1.00  0.00     0.170 C 
BRANCH  28  29
ATOM     29  C   UNL     1      11.528  37.104  54.369  1.00  0.00    -0.013 A 
ATOM     30  C   UNL     1      10.656  38.206  54.270  1.00  0.00     0.056 A 
ATOM     31  C   UNL     1      10.966  35.816  54.412  1.00  0.00     0.010 A 
ATOM     32  C   UNL     1       9.282  38.015  54.180  1.00  0.00     0.157 A 
ATOM     33  C   UNL     1       9.580  35.631  54.342  1.00  0.00     0.050 A 
ATOM     34  C   UNL     1       8.749  36.733  54.226  1.00  0.00     0.157 A 
BRANCH  32  35
ATOM     35  O   UNL     1       8.420  39.065  54.018  1.00  0.00    -0.504 OA
ATOM     36  H   UNL     1       8.159  39.093  53.068  1.00  0.00     0.293 HD
ENDBRANCH  32  35
BRANCH  34  37
ATOM     37  O   UNL     1       7.399  36.548  54.148  1.00  0.00    -0.504 OA
ATOM     38  H   UNL     1       7.291  35.580  54.057  1.00  0.00     0.293 HD
ENDBRANCH  34  37
ENDBRANCH  28  29
BRANCH  28  39
ATOM     39  O   UNL     1      13.343  38.554  53.722  1.00  0.00    -0.386 OA
ATOM     40  H   UNL     1      13.645  39.216  54.381  1.00  0.00     0.211 HD
ENDBRANCH  28  39
ENDBRANCH  27  28
ENDBRANCH  26  27
ENDBRANCH   5  26
BRANCH   4  41
ATOM     41  O   UNL     1      16.564  36.446  57.087  1.00  0.00    -0.385 OA
ATOM     42  H   UNL     1      17.205  37.058  56.675  1.00  0.00     0.211 HD
ENDBRANCH   4  41
TORSDOF 16
ENDMDL
MODEL 4
REMARK VINA RESULT:    -8.520      2.400      3.620
REMARK INTER + INTRA:         -15.396
REMARK INTER:                 -13.770
REMARK INTRA:                  -1.626
REMARK UNBOUND:                -1.147
REMARK SMILES C[C@@H]1O[C@@H](OC[C@H]2O[C@@H](OCC(O)c3ccc(O)c(O)c3)[C@H](O)[C@@H](O)[C@@H]2O)[C@H](O)[C@H](O)[C@H]1O
REMARK SMILES IDX 7 1 26 2 24 3 22 4 9 5 8 6 6 7 5 8 4 9 2 10 32 11 3 12 30 13
REMARK SMILES IDX 28 14 1 15 33 16 31 18 29 20 27 22 25 24 10 26 11 27 12 28
REMARK SMILES IDX 14 29 21 30 15 31 19 32 16 33 17 34 20 35 18 37 13 39 23 41
REMARK H PARENT 33 17 31 19 29 21 27 23 25 25 20 36 18 38 13 40 23 42
ROOT
ATOM      1  C   UNL     1      16.392  35.431  54.405  1.00  0.00     0.178 C 
ATOM      2  C   UNL     1      17.279  35.105  55.615  1.00  0.00     0.177 C 
ATOM      3  C   UNL     1      16.709  35.766  56.869  1.00  0.00     0.179 C 
ATOM      4  C   UNL     1      15.246  35.383  57.053  1.00  0.00     0.202 C 
ATOM      5  C   UNL     1      14.459  35.712  55.770  1.00  0.00     0.282 C 
ATOM      6  O   UNL     1      15.028  35.025  54.654  1.00  0.00    -0.341 OA
ENDROOT
BRANCH   1   7
ATOM      7  C   UNL     1      16.906  34.708  53.150  1.00  0.00     0.198 C 
BRANCH   7   8
ATOM      8  O   UNL     1      17.748  33.620  53.550  1.00  0.00    -0.347 OA
BRANCH   8   9
ATOM      9  C   UNL     1      17.276  32.350  53.093  1.00  0.00     0.281 C 
ATOM     10  C   UNL     1      16.345  31.775  55.226  1.00  0.00     0.150 C 
ATOM     11  C   UNL     1      17.347  30.627  55.432  1.00  0.00     0.174 C 
ATOM     12  O   UNL     1      16.099  31.994  53.836  1.00  0.00    -0.344 OA
ATOM     13  C   UNL     1      18.642  30.939  54.668  1.00  0.00     0.179 C 
ATOM     14  C   UNL     1      18.353  31.249  53.199  1.00  0.00     0.202 C 
ATOM     15  C   UNL     1      15.000  31.475  55.880  1.00  0.00     0.041 C 
BRANCH  11  16
ATOM     16  O   UNL     1      17.654  30.426  56.826  1.00  0.00    -0.388 OA
ATOM     17  H   UNL     1      18.532  30.833  56.963  1.00  0.00     0.211 HD
ENDBRANCH  11  16
BRANCH  13  18
ATOM     18  O   UNL     1      19.528  29.807  54.734  1.00  0.00    -0.387 OA
ATOM     19  H   UNL     1      18.955  29.019  54.651  1.00  0.00     0.211 HD
ENDBRANCH  13  18
BRANCH  14  20
ATOM     20  O   UNL     1      17.932  30.041  52.540  1.00  0.00    -0.385 OA
ATOM     21  H   UNL     1      17.587  30.340  51.673  1.00  0.00     0.211 HD
ENDBRANCH  14  20
ENDBRANCH   8   9
ENDBRANCH   7   8
ENDBRANCH   1   7
BRANCH   2  22
ATOM     22  O   UNL     1      18.618  35.560  55.415  1.00  0.00    -0.387 OA
ATOM     23  H   UNL     1      18.531  36.418  54.950  1.00  0.00     0.211 HD
ENDBRANCH   2  22
BRANCH   3  24
ATOM     24  O   UNL     1      17.482  35.355  58.007  1.00  0.00    -0.387 OA
ATOM     25  H   UNL     1      17.510  36.140  58.592  1.00  0.00     0.211 HD
ENDBRANCH   3  24
BRANCH   5  26
ATOM     26  O   UNL     1      13.121  35.262  56.005  1.00  0.00    -0.347 OA
BRANCH  26  27
ATOM     27  C   UNL     1      12.098  36.194  55.636  1.00  0.00     0.200 C 
BRANCH  27  28
ATOM     28  C   UNL     1      11.303  36.825  56.800  1.00  0.00     0.170 C 
BRANCH  28  29
ATOM     29  C   UNL     1      10.125  37.721  56.466  1.00  0.00    -0.013 A 
ATOM     30  C   UNL     1       9.997  38.189  55.143  1.00  0.00     0.056 A 
ATOM     31  C   UNL     1       9.172  38.138  57.412  1.00  0.00     0.010 A 
ATOM     32  C   UNL     1       8.934  39.010  54.784  1.00  0.00     0.157 A 
ATOM     33  C   UNL     1       8.116  38.982  57.049  1.00  0.00     0.050 A 
ATOM     34  C   UNL     1       8.006  39.410  55.736  1.00  0.00     0.157 A 
BRANCH  32  35
ATOM     35  O   UNL     1       8.752  39.424  53.492  1.00  0.00    -0.504 OA
ATOM     36  H   UNL     1       8.827  40.406  53.481  1.00  0.00     0.293 HD
ENDBRANCH  32  35
BRANCH  34  37
ATOM     37  O   UNL     1       6.969  40.225  55.383  1.00  0.00    -0.504 OA
ATOM     38  H   UNL     1       6.325  39.628  54.953  1.00  0.00     0.293 HD
ENDBRANCH  34  37
ENDBRANCH  28  29
BRANCH  28  39
ATOM     39  O   UNL     1      12.199  37.512  57.678  1.00  0.00    -0.386 OA
ATOM     40  H   UNL     1      12.465  36.861  58.364  1.00  0.00     0.211 HD
ENDBRANCH  28  39
ENDBRANCH  27  28
ENDBRANCH  26  27
ENDBRANCH   5  26
BRANCH   4  41
ATOM     41  O   UNL     1      14.722  36.088  58.190  1.00  0.00    -0.385 OA
ATOM     42  H   UNL     1      15.359  36.809  58.360  1.00  0.00     0.211 HD
ENDBRANCH   4  41
TORSDOF 16
ENDMDL
MODEL 5
REMARK VINA RESULT:    -8.486      2.399      8.246
REMARK INTER + INTRA:         -15.338
REMARK INTER:                 -13.737
REMARK INTRA:                  -1.602
REMARK UNBOUND:                -1.147
REMARK SMILES C[C@@H]1O[C@@H](OC[C@H]2O[C@@H](OCC(O)c3ccc(O)c(O)c3)[C@H](O)[C@@H](O)[C@@H]2O)[C@H](O)[C@H](O)[C@H]1O
REMARK SMILES IDX 7 1 26 2 24 3 22 4 9 5 8 6 6 7 5 8 4 9 2 10 32 11 3 12 30 13
REMARK SMILES IDX 28 14 1 15 33 16 31 18 29 20 27 22 25 24 10 26 11 27 12 28
REMARK SMILES IDX 14 29 21 30 15 31 19 32 16 33 17 34 20 35 18 37 13 39 23 41
REMARK H PARENT 33 17 31 19 29 21 27 23 25 25 20 36 18 38 13 40 23 42
ROOT
ATOM      1  C   UNL     1      14.336  35.254  56.330  1.00  0.00     0.178 C 
ATOM      2  C   UNL     1      12.955  35.327  56.998  1.00  0.00     0.177 C 
ATOM      3  C   UNL     1      11.861  35.291  55.932  1.00  0.00     0.179 C 
ATOM      4  C   UNL     1      12.046  34.082  55.023  1.00  0.00     0.202 C 
ATOM      5  C   UNL     1      13.472  34.084  54.442  1.00  0.00     0.282 C 
ATOM      6  O   UNL     1      14.433  34.076  55.499  1.00  0.00    -0.341 OA
ENDROOT
BRANCH   1   7
ATOM      7  C   UNL     1      15.446  35.209  57.392  1.00  0.00     0.198 C 
BRANCH   7   8
ATOM      8  O   UNL     1      16.414  36.224  57.098  1.00  0.00    -0.347 OA
BRANCH   8   9
ATOM      9  C   UNL     1      17.749  35.717  57.014  1.00  0.00     0.281 C 
ATOM     10  C   UNL     1      18.395  37.308  55.342  1.00  0.00     0.150 C 
ATOM     11  C   UNL     1      18.581  36.215  54.276  1.00  0.00     0.174 C 
ATOM     12  O   UNL     1      18.634  36.788  56.651  1.00  0.00    -0.344 OA
ATOM     13  C   UNL     1      17.658  35.031  54.595  1.00  0.00     0.179 C 
ATOM     14  C   UNL     1      17.870  34.537  56.027  1.00  0.00     0.202 C 
ATOM     15  C   UNL     1      19.361  38.470  55.135  1.00  0.00     0.041 C 
BRANCH  11  16
ATOM     16  O   UNL     1      18.290  36.703  52.951  1.00  0.00    -0.388 OA
ATOM     17  H   UNL     1      17.380  37.057  52.996  1.00  0.00     0.211 HD
ENDBRANCH  11  16
BRANCH  13  18
ATOM     18  O   UNL     1      17.931  33.946  53.689  1.00  0.00    -0.387 OA
ATOM     19  H   UNL     1      17.723  33.129  54.185  1.00  0.00     0.211 HD
ENDBRANCH  13  18
BRANCH  14  20
ATOM     20  O   UNL     1      19.161  33.909  56.118  1.00  0.00    -0.385 OA
ATOM     21  H   UNL     1      19.579  34.318  56.904  1.00  0.00     0.211 HD
ENDBRANCH  14  20
ENDBRANCH   8   9
ENDBRANCH   7   8
ENDBRANCH   1   7
BRANCH   2  22
ATOM     22  O   UNL     1      12.815  36.521  57.770  1.00  0.00    -0.387 OA
ATOM     23  H   UNL     1      12.067  37.005  57.363  1.00  0.00     0.211 HD
ENDBRANCH   2  22
BRANCH   3  24
ATOM     24  O   UNL     1      10.580  35.243  56.578  1.00  0.00    -0.387 OA
ATOM     25  H   UNL     1      10.415  34.292  56.745  1.00  0.00     0.211 HD
ENDBRANCH   3  24
BRANCH   5  26
ATOM     26  O   UNL     1      13.579  32.889  53.661  1.00  0.00    -0.347 OA
BRANCH  26  27
ATOM     27  C   UNL     1      14.751  32.106  53.914  1.00  0.00     0.200 C 
BRANCH  27  28
ATOM     28  C   UNL     1      15.467  31.537  52.670  1.00  0.00     0.170 C 
BRANCH  28  29
ATOM     29  C   UNL     1      16.281  30.265  52.826  1.00  0.00    -0.013 A 
ATOM     30  C   UNL     1      17.587  30.369  53.344  1.00  0.00     0.056 A 
ATOM     31  C   UNL     1      15.816  28.993  52.451  1.00  0.00     0.010 A 
ATOM     32  C   UNL     1      18.373  29.234  53.511  1.00  0.00     0.157 A 
ATOM     33  C   UNL     1      16.619  27.858  52.601  1.00  0.00     0.050 A 
ATOM     34  C   UNL     1      17.892  27.988  53.131  1.00  0.00     0.157 A 
BRANCH  32  35
ATOM     35  O   UNL     1      19.619  29.300  54.072  1.00  0.00    -0.504 OA
ATOM     36  H   UNL     1      19.883  28.385  54.321  1.00  0.00     0.293 HD
ENDBRANCH  32  35
BRANCH  34  37
ATOM     37  O   UNL     1      18.670  26.877  53.285  1.00  0.00    -0.504 OA
ATOM     38  H   UNL     1      19.587  27.214  53.251  1.00  0.00     0.293 HD
ENDBRANCH  34  37
ENDBRANCH  28  29
BRANCH  28  39
ATOM     39  O   UNL     1      16.273  32.555  52.069  1.00  0.00    -0.386 OA
ATOM     40  H   UNL     1      15.888  33.413  52.352  1.00  0.00     0.211 HD
ENDBRANCH  28  39
ENDBRANCH  27  28
ENDBRANCH  26  27
ENDBRANCH   5  26
BRANCH   4  41
ATOM     41  O   UNL     1      11.053  34.128  53.985  1.00  0.00    -0.385 OA
ATOM     42  H   UNL     1      10.679  35.030  54.027  1.00  0.00     0.211 HD
ENDBRANCH   4  41
TORSDOF 16
ENDMDL
MODEL 6
REMARK VINA RESULT:    -8.450      1.467      2.057
REMARK INTER + INTRA:         -15.278
REMARK INTER:                 -14.078
REMARK INTRA:                  -1.200
REMARK UNBOUND:                -1.147
REMARK SMILES C[C@@H]1O[C@@H](OC[C@H]2O[C@@H](OCC(O)c3ccc(O)c(O)c3)[C@H](O)[C@@H](O)[C@@H]2O)[C@H](O)[C@H](O)[C@H]1O
REMARK SMILES IDX 7 1 26 2 24 3 22 4 9 5 8 6 6 7 5 8 4 9 2 10 32 11 3 12 30 13
REMARK SMILES IDX 28 14 1 15 33 16 31 18 29 20 27 22 25 24 10 26 11 27 12 28
REMARK SMILES IDX 14 29 21 30 15 31 19 32 16 33 17 34 20 35 18 37 13 39 23 41
REMARK H PARENT 33 17 31 19 29 21 27 23 25 25 20 36 18 38 13 40 23 42
ROOT
ATOM      1  C   UNL     1      16.621  33.095  54.697  1.00  0.00     0.178 C 
ATOM      2  C   UNL     1      18.030  33.692  54.822  1.00  0.00     0.177 C 
ATOM      3  C   UNL     1      18.087  35.040  54.104  1.00  0.00     0.179 C 
ATOM      4  C   UNL     1      16.979  35.956  54.607  1.00  0.00     0.202 C 
ATOM      5  C   UNL     1      15.619  35.245  54.476  1.00  0.00     0.282 C 
ATOM      6  O   UNL     1      15.634  34.017  55.207  1.00  0.00    -0.341 OA
ENDROOT
BRANCH   1   7
ATOM      7  C   UNL     1      16.525  31.776  55.481  1.00  0.00     0.198 C 
BRANCH   7   8
ATOM      8  O   UNL     1      16.918  30.695  54.626  1.00  0.00    -0.347 OA
BRANCH   8   9
ATOM      9  C   UNL     1      17.836  29.794  55.250  1.00  0.00     0.281 C 
ATOM     10  C   UNL     1      18.665  28.972  53.157  1.00  0.00     0.150 C 
ATOM     11  C   UNL     1      18.090  27.567  53.402  1.00  0.00     0.174 C 
ATOM     12  O   UNL     1      18.975  29.618  54.392  1.00  0.00    -0.344 OA
ATOM     13  C   UNL     1      16.858  27.674  54.312  1.00  0.00     0.179 C 
ATOM     14  C   UNL     1      17.186  28.437  55.595  1.00  0.00     0.202 C 
ATOM     15  C   UNL     1      19.952  28.921  52.340  1.00  0.00     0.041 C 
BRANCH  11  16
ATOM     16  O   UNL     1      17.717  26.918  52.169  1.00  0.00    -0.388 OA
ATOM     17  H   UNL     1      17.675  25.964  52.377  1.00  0.00     0.211 HD
ENDBRANCH  11  16
BRANCH  13  18
ATOM     18  O   UNL     1      16.401  26.355  54.664  1.00  0.00    -0.387 OA
ATOM     19  H   UNL     1      15.424  26.406  54.666  1.00  0.00     0.211 HD
ENDBRANCH  13  18
BRANCH  14  20
ATOM     20  O   UNL     1      18.057  27.631  56.408  1.00  0.00    -0.385 OA
ATOM     21  H   UNL     1      17.453  27.057  56.922  1.00  0.00     0.211 HD
ENDBRANCH  14  20
ENDBRANCH   8   9
ENDBRANCH   7   8
ENDBRANCH   1   7
BRANCH   2  22
ATOM     22  O   UNL     1      19.015  32.822  54.260  1.00  0.00    -0.387 OA
ATOM     23  H   UNL     1      18.601  32.452  53.453  1.00  0.00     0.211 HD
ENDBRANCH   2  22
BRANCH   3  24
ATOM     24  O   UNL     1      19.374  35.636  54.330  1.00  0.00    -0.387 OA
ATOM     25  H   UNL     1      19.338  36.501  53.872  1.00  0.00     0.211 HD
ENDBRANCH   3  24
BRANCH   5  26
ATOM     26  O   UNL     1      14.652  36.144  55.029  1.00  0.00    -0.347 OA
BRANCH  26  27
ATOM     27  C   UNL     1      13.611  36.538  54.128  1.00  0.00     0.200 C 
BRANCH  27  28
ATOM     28  C   UNL     1      12.218  35.925  54.393  1.00  0.00     0.170 C 
BRANCH  28  29
ATOM     29  C   UNL     1      11.014  36.849  54.398  1.00  0.00    -0.013 A 
ATOM     30  C   UNL     1      11.239  38.238  54.334  1.00  0.00     0.056 A 
ATOM     31  C   UNL     1       9.687  36.396  54.498  1.00  0.00     0.010 A 
ATOM     32  C   UNL     1      10.171  39.128  54.332  1.00  0.00     0.157 A 
ATOM     33  C   UNL     1       8.617  37.297  54.517  1.00  0.00     0.050 A 
ATOM     34  C   UNL     1       8.868  38.657  54.433  1.00  0.00     0.157 A 
BRANCH  32  35
ATOM     35  O   UNL     1      10.360  40.477  54.205  1.00  0.00    -0.504 OA
ATOM     36  H   UNL     1       9.609  40.927  54.656  1.00  0.00     0.293 HD
ENDBRANCH  32  35
BRANCH  34  37
ATOM     37  O   UNL     1       7.821  39.532  54.442  1.00  0.00    -0.504 OA
ATOM     38  H   UNL     1       7.346  39.354  53.605  1.00  0.00     0.293 HD
ENDBRANCH  34  37
ENDBRANCH  28  29
BRANCH  28  39
ATOM     39  O   UNL     1      12.249  35.164  55.604  1.00  0.00    -0.386 OA
ATOM     40  H   UNL     1      13.195  34.980  55.789  1.00  0.00     0.211 HD
ENDBRANCH  28  39
ENDBRANCH  27  28
ENDBRANCH  26  27
ENDBRANCH   5  26
BRANCH   4  41
ATOM     41  O   UNL     1      17.011  37.179  53.853  1.00  0.00    -0.385 OA
ATOM     42  H   UNL     1      16.187  37.176  53.326  1.00  0.00     0.211 HD
ENDBRANCH   4  41
TORSDOF 16
ENDMDL
MODEL 7
REMARK VINA RESULT:    -8.444      2.144     10.056
REMARK INTER + INTRA:         -15.268
REMARK INTER:                 -13.941
REMARK INTRA:                  -1.327
REMARK UNBOUND:                -1.147
REMARK SMILES C[C@@H]1O[C@@H](OC[C@H]2O[C@@H](OCC(O)c3ccc(O)c(O)c3)[C@H](O)[C@@H](O)[C@@H]2O)[C@H](O)[C@H](O)[C@H]1O
REMARK SMILES IDX 7 1 26 2 24 3 22 4 9 5 8 6 6 7 5 8 4 9 2 10 32 11 3 12 30 13
REMARK SMILES IDX 28 14 1 15 33 16 31 18 29 20 27 22 25 24 10 26 11 27 12 28
REMARK SMILES IDX 14 29 21 30 15 31 19 32 16 33 17 34 20 35 18 37 13 39 23 41
REMARK H PARENT 33 17 31 19 29 21 27 23 25 25 20 36 18 38 13 40 23 42
ROOT
ATOM      1  C   UNL     1      14.253  35.209  54.737  1.00  0.00     0.178 C 
ATOM      2  C   UNL     1      14.907  35.682  56.043  1.00  0.00     0.177 C 
ATOM      3  C   UNL     1      15.900  34.631  56.536  1.00  0.00     0.179 C 
ATOM      4  C   UNL     1      16.895  34.283  55.436  1.00  0.00     0.202 C 
ATOM      5  C   UNL     1      16.135  33.864  54.164  1.00  0.00     0.282 C 
ATOM      6  O   UNL     1      15.261  34.914  53.746  1.00  0.00    -0.341 OA
ENDROOT
BRANCH   1   7
ATOM      7  C   UNL     1      13.310  36.290  54.185  1.00  0.00     0.198 C 
BRANCH   7   8
ATOM      8  O   UNL     1      12.184  36.419  55.063  1.00  0.00    -0.347 OA
BRANCH   8   9
ATOM      9  C   UNL     1      11.858  37.780  55.357  1.00  0.00     0.281 C 
ATOM     10  C   UNL     1      10.680  37.207  57.365  1.00  0.00     0.150 C 
ATOM     11  C   UNL     1       9.330  37.663  56.785  1.00  0.00     0.174 C 
ATOM     12  O   UNL     1      11.758  37.940  56.781  1.00  0.00    -0.344 OA
ATOM     13  C   UNL     1       9.357  37.516  55.257  1.00  0.00     0.179 C 
ATOM     14  C   UNL     1      10.562  38.239  54.655  1.00  0.00     0.202 C 
ATOM     15  C   UNL     1      10.750  37.425  58.872  1.00  0.00     0.041 C 
BRANCH  11  16
ATOM     16  O   UNL     1       8.231  36.897  57.318  1.00  0.00    -0.388 OA
ATOM     17  H   UNL     1       8.281  37.006  58.287  1.00  0.00     0.211 HD
ENDBRANCH  11  16
BRANCH  13  18
ATOM     18  O   UNL     1       8.156  38.075  54.696  1.00  0.00    -0.387 OA
ATOM     19  H   UNL     1       7.582  38.288  55.459  1.00  0.00     0.211 HD
ENDBRANCH  13  18
BRANCH  14  20
ATOM     20  O   UNL     1      10.369  39.658  54.789  1.00  0.00    -0.385 OA
ATOM     21  H   UNL     1      10.411  40.000  53.872  1.00  0.00     0.211 HD
ENDBRANCH  14  20
ENDBRANCH   8   9
ENDBRANCH   7   8
ENDBRANCH   1   7
BRANCH   2  22
ATOM     22  O   UNL     1      13.930  35.914  57.059  1.00  0.00    -0.387 OA
ATOM     23  H   UNL     1      13.625  36.834  56.919  1.00  0.00     0.211 HD
ENDBRANCH   2  22
BRANCH   3  24
ATOM     24  O   UNL     1      16.585  35.139  57.691  1.00  0.00    -0.387 OA
ATOM     25  H   UNL     1      17.310  35.693  57.334  1.00  0.00     0.211 HD
ENDBRANCH   3  24
BRANCH   5  26
ATOM     26  O   UNL     1      17.136  33.623  53.170  1.00  0.00    -0.347 OA
BRANCH  26  27
ATOM     27  C   UNL     1      16.897  32.482  52.338  1.00  0.00     0.200 C 
BRANCH  27  28
ATOM     28  C   UNL     1      16.493  31.182  53.068  1.00  0.00     0.170 C 
BRANCH  28  29
ATOM     29  C   UNL     1      17.407  29.976  52.951  1.00  0.00    -0.013 A 
ATOM     30  C   UNL     1      18.761  30.195  52.629  1.00  0.00     0.056 A 
ATOM     31  C   UNL     1      16.970  28.651  53.113  1.00  0.00     0.010 A 
ATOM     32  C   UNL     1      19.642  29.125  52.513  1.00  0.00     0.157 A 
ATOM     33  C   UNL     1      17.856  27.577  52.974  1.00  0.00     0.050 A 
ATOM     34  C   UNL     1      19.186  27.824  52.676  1.00  0.00     0.157 A 
BRANCH  32  35
ATOM     35  O   UNL     1      20.974  29.316  52.265  1.00  0.00    -0.504 OA
ATOM     36  H   UNL     1      21.325  28.484  51.871  1.00  0.00     0.293 HD
ENDBRANCH  32  35
BRANCH  34  37
ATOM     37  O   UNL     1      20.050  26.774  52.551  1.00  0.00    -0.504 OA
ATOM     38  H   UNL     1      20.728  26.933  53.238  1.00  0.00     0.293 HD
ENDBRANCH  34  37
ENDBRANCH  28  29
BRANCH  28  39
ATOM     39  O   UNL     1      15.161  30.816  52.699  1.00  0.00    -0.386 OA
ATOM     40  H   UNL     1      14.758  31.615  52.295  1.00  0.00     0.211 HD
ENDBRANCH  28  39
ENDBRANCH  27  28
ENDBRANCH  26  27
ENDBRANCH   5  26
BRANCH   4  41
ATOM     41  O   UNL     1      17.757  33.234  55.905  1.00  0.00    -0.385 OA
ATOM     42  H   UNL     1      18.219  33.610  56.681  1.00  0.00     0.211 HD
ENDBRANCH   4  41
TORSDOF 16
ENDMDL
MODEL 8
REMARK VINA RESULT:    -8.247      4.448     10.860
REMARK INTER + INTRA:         -14.938
REMARK INTER:                 -13.791
REMARK INTRA:                  -1.148
REMARK UNBOUND:                -1.147
REMARK SMILES C[C@@H]1O[C@@H](OC[C@H]2O[C@@H](OCC(O)c3ccc(O)c(O)c3)[C@H](O)[C@@H](O)[C@@H]2O)[C@H](O)[C@H](O)[C@H]1O
REMARK SMILES IDX 7 1 26 2 24 3 22 4 9 5 8 6 6 7 5 8 4 9 2 10 32 11 3 12 30 13
REMARK SMILES IDX 28 14 1 15 33 16 31 18 29 20 27 22 25 24 10 26 11 27 12 28
REMARK SMILES IDX 14 29 21 30 15 31 19 32 16 33 17 34 20 35 18 37 13 39 23 41
REMARK H PARENT 33 17 31 19 29 21 27 23 25 25 20 36 18 38 13 40 23 42
ROOT
ATOM      1  C   UNL     1       9.830  36.768  59.101  1.00  0.00     0.178 C 
ATOM      2  C   UNL     1      10.549  37.289  60.354  1.00  0.00     0.177 C 
ATOM      3  C   UNL     1      11.952  36.690  60.434  1.00  0.00     0.179 C 
ATOM      4  C   UNL     1      12.710  36.941  59.136  1.00  0.00     0.202 C 
ATOM      5  C   UNL     1      11.884  36.420  57.945  1.00  0.00     0.282 C 
ATOM      6  O   UNL     1      10.605  37.057  57.918  1.00  0.00    -0.341 OA
ENDROOT
BRANCH   1   7
ATOM      7  C   UNL     1       8.446  37.422  58.964  1.00  0.00     0.198 C 
BRANCH   7   8
ATOM      8  O   UNL     1       8.530  38.499  58.022  1.00  0.00    -0.347 OA
BRANCH   8   9
ATOM      9  C   UNL     1       7.608  38.367  56.937  1.00  0.00     0.281 C 
ATOM     10  C   UNL     1       9.345  38.325  55.285  1.00  0.00     0.150 C 
ATOM     11  C   UNL     1       8.898  39.667  54.681  1.00  0.00     0.174 C 
ATOM     12  O   UNL     1       8.240  37.637  55.873  1.00  0.00    -0.344 OA
ATOM     13  C   UNL     1       8.214  40.511  55.767  1.00  0.00     0.179 C 
ATOM     14  C   UNL     1       7.085  39.731  56.440  1.00  0.00     0.202 C 
ATOM     15  C   UNL     1       9.942  37.401  54.230  1.00  0.00     0.041 C 
BRANCH  11  16
ATOM     16  O   UNL     1      10.008  40.405  54.133  1.00  0.00    -0.388 OA
ATOM     17  H   UNL     1      10.380  40.913  54.880  1.00  0.00     0.211 HD
ENDBRANCH  11  16
BRANCH  13  18
ATOM     18  O   UNL     1       7.664  41.703  55.177  1.00  0.00    -0.387 OA
ATOM     19  H   UNL     1       8.035  42.447  55.692  1.00  0.00     0.211 HD
ENDBRANCH  13  18
BRANCH  14  20
ATOM     20  O   UNL     1       6.006  39.567  55.502  1.00  0.00    -0.385 OA
ATOM     21  H   UNL     1       6.420  39.141  54.723  1.00  0.00     0.211 HD
ENDBRANCH  14  20
ENDBRANCH   8   9
ENDBRANCH   7   8
ENDBRANCH   1   7
BRANCH   2  22
ATOM     22  O   UNL     1       9.830  36.953  61.542  1.00  0.00    -0.387 OA
ATOM     23  H   UNL     1      10.462  36.443  62.090  1.00  0.00     0.211 HD
ENDBRANCH   2  22
BRANCH   3  24
ATOM     24  O   UNL     1      12.649  37.277  61.544  1.00  0.00    -0.387 OA
ATOM     25  H   UNL     1      12.306  38.192  61.604  1.00  0.00     0.211 HD
ENDBRANCH   3  24
BRANCH   5  26
ATOM     26  O   UNL     1      12.634  36.754  56.772  1.00  0.00    -0.347 OA
BRANCH  26  27
ATOM     27  C   UNL     1      12.918  35.651  55.904  1.00  0.00     0.200 C 
BRANCH  27  28
ATOM     28  C   UNL     1      13.656  35.995  54.592  1.00  0.00     0.170 C 
BRANCH  28  29
ATOM     29  C   UNL     1      15.152  35.746  54.520  1.00  0.00    -0.013 A 
ATOM     30  C   UNL     1      15.788  35.179  55.642  1.00  0.00     0.056 A 
ATOM     31  C   UNL     1      15.944  36.082  53.408  1.00  0.00     0.010 A 
ATOM     32  C   UNL     1      17.155  34.927  55.627  1.00  0.00     0.157 A 
ATOM     33  C   UNL     1      17.323  35.846  53.407  1.00  0.00     0.050 A 
ATOM     34  C   UNL     1      17.917  35.269  54.518  1.00  0.00     0.157 A 
BRANCH  32  35
ATOM     35  O   UNL     1      17.784  34.318  56.678  1.00  0.00    -0.504 OA
ATOM     36  H   UNL     1      18.745  34.525  56.611  1.00  0.00     0.293 HD
ENDBRANCH  32  35
BRANCH  34  37
ATOM     37  O   UNL     1      19.261  35.031  54.509  1.00  0.00    -0.504 OA
ATOM     38  H   UNL     1      19.652  35.854  54.153  1.00  0.00     0.293 HD
ENDBRANCH  34  37
ENDBRANCH  28  29
BRANCH  28  39
ATOM     39  O   UNL     1      13.373  37.347  54.219  1.00  0.00    -0.386 OA
ATOM     40  H   UNL     1      12.629  37.638  54.790  1.00  0.00     0.211 HD
ENDBRANCH  28  39
ENDBRANCH  27  28
ENDBRANCH  26  27
ENDBRANCH   5  26
BRANCH   4  41
ATOM     41  O   UNL     1      13.990  36.293  59.215  1.00  0.00    -0.385 OA
ATOM     42  H   UNL     1      14.371  36.370  58.318  1.00  0.00     0.211 HD
ENDBRANCH   4  41
TORSDOF 16
ENDMDL
MODEL 9
REMARK VINA RESULT:    -8.178      2.970      6.142
REMARK INTER + INTRA:         -14.824
REMARK INTER:                 -13.465
REMARK INTRA:                  -1.358
REMARK UNBOUND:                -1.147
REMARK SMILES C[C@@H]1O[C@@H](OC[C@H]2O[C@@H](OCC(O)c3ccc(O)c(O)c3)[C@H](O)[C@@H](O)[C@@H]2O)[C@H](O)[C@H](O)[C@H]1O
REMARK SMILES IDX 7 1 26 2 24 3 22 4 9 5 8 6 6 7 5 8 4 9 2 10 32 11 3 12 30 13
REMARK SMILES IDX 28 14 1 15 33 16 31 18 29 20 27 22 25 24 10 26 11 27 12 28
REMARK SMILES IDX 14 29 21 30 15 31 19 32 16 33 17 34 20 35 18 37 13 39 23 41
REMARK H PARENT 33 17 31 19 29 21 27 23 25 25 20 36 18 38 13 40 23 42
ROOT
ATOM      1  C   UNL     1      13.550  36.752  54.983  1.00  0.00     0.178 C 
ATOM      2  C   UNL     1      13.530  35.597  55.995  1.00  0.00     0.177 C 
ATOM      3  C   UNL     1      12.270  35.683  56.854  1.00  0.00     0.179 C 
ATOM      4  C   UNL     1      11.030  35.754  55.972  1.00  0.00     0.202 C 
ATOM      5  C   UNL     1      11.173  36.916  54.970  1.00  0.00     0.282 C 
ATOM      6  O   UNL     1      12.350  36.740  54.179  1.00  0.00    -0.341 OA
ENDROOT
BRANCH   1   7
ATOM      7  C   UNL     1      14.772  36.635  54.057  1.00  0.00     0.198 C 
BRANCH   7   8
ATOM      8  O   UNL     1      15.350  35.333  54.210  1.00  0.00    -0.347 OA
BRANCH   8   9
ATOM      9  C   UNL     1      16.730  35.286  53.839  1.00  0.00     0.281 C 
ATOM     10  C   UNL     1      16.852  32.903  54.065  1.00  0.00     0.150 C 
ATOM     11  C   UNL     1      17.821  32.996  55.256  1.00  0.00     0.174 C 
ATOM     12  O   UNL     1      17.000  34.029  53.198  1.00  0.00    -0.344 OA
ATOM     13  C   UNL     1      17.588  34.320  55.998  1.00  0.00     0.179 C 
ATOM     14  C   UNL     1      17.671  35.509  55.042  1.00  0.00     0.202 C 
ATOM     15  C   UNL     1      17.104  31.653  53.228  1.00  0.00     0.041 C 
BRANCH  11  16
ATOM     16  O   UNL     1      17.649  31.898  56.174  1.00  0.00    -0.388 OA
ATOM     17  H   UNL     1      16.858  32.119  56.703  1.00  0.00     0.211 HD
ENDBRANCH  11  16
BRANCH  13  18
ATOM     18  O   UNL     1      18.586  34.481  57.023  1.00  0.00    -0.387 OA
ATOM     19  H   UNL     1      18.322  33.877  57.746  1.00  0.00     0.211 HD
ENDBRANCH  13  18
BRANCH  14  20
ATOM     20  O   UNL     1      19.035  35.672  54.615  1.00  0.00    -0.385 OA
ATOM     21  H   UNL     1      19.230  34.862  54.099  1.00  0.00     0.211 HD
ENDBRANCH  14  20
ENDBRANCH   8   9
ENDBRANCH   7   8
ENDBRANCH   1   7
BRANCH   2  22
ATOM     22  O   UNL     1      14.678  35.633  56.845  1.00  0.00    -0.387 OA
ATOM     23  H   UNL     1      15.181  36.425  56.565  1.00  0.00     0.211 HD
ENDBRANCH   2  22
BRANCH   3  24
ATOM     24  O   UNL     1      12.210  34.534  57.713  1.00  0.00    -0.387 OA
ATOM     25  H   UNL     1      13.032  34.570  58.245  1.00  0.00     0.211 HD
ENDBRANCH   3  24
BRANCH   5  26
ATOM     26  O   UNL     1      10.005  36.867  54.144  1.00  0.00    -0.347 OA
BRANCH  26  27
ATOM     27  C   UNL     1       9.290  38.104  54.038  1.00  0.00     0.200 C 
BRANCH  27  28
ATOM     28  C   UNL     1       9.448  39.082  55.223  1.00  0.00     0.170 C 
BRANCH  28  29
ATOM     29  C   UNL     1       8.341  39.142  56.260  1.00  0.00    -0.013 A 
ATOM     30  C   UNL     1       7.026  39.387  55.817  1.00  0.00     0.056 A 
ATOM     31  C   UNL     1       8.560  39.002  57.641  1.00  0.00     0.010 A 
ATOM     32  C   UNL     1       5.974  39.448  56.724  1.00  0.00     0.157 A 
ATOM     33  C   UNL     1       7.501  39.086  58.552  1.00  0.00     0.050 A 
ATOM     34  C   UNL     1       6.215  39.308  58.085  1.00  0.00     0.157 A 
BRANCH  32  35
ATOM     35  O   UNL     1       4.680  39.619  56.314  1.00  0.00    -0.504 OA
ATOM     36  H   UNL     1       4.675  40.335  55.637  1.00  0.00     0.293 HD
ENDBRANCH  32  35
BRANCH  34  37
ATOM     37  O   UNL     1       5.183  39.380  58.975  1.00  0.00    -0.504 OA
ATOM     38  H   UNL     1       4.881  40.309  58.924  1.00  0.00     0.293 HD
ENDBRANCH  34  37
ENDBRANCH  28  29
BRANCH  28  39
ATOM     39  O   UNL     1       9.720  40.397  54.730  1.00  0.00    -0.386 OA
ATOM     40  H   UNL     1      10.607  40.355  54.312  1.00  0.00     0.211 HD
ENDBRANCH  28  39
ENDBRANCH  27  28
ENDBRANCH  26  27
ENDBRANCH   5  26
BRANCH   4  41
ATOM     41  O   UNL     1       9.874  35.919  56.809  1.00  0.00    -0.385 OA
ATOM     42  H   UNL     1       9.394  35.069  56.754  1.00  0.00     0.211 HD
ENDBRANCH   4  41
TORSDOF 16
ENDMDL
