MODEL 1
REMARK VINA RESULT:   -11.110      0.000      0.000
REMARK INTER + INTRA:         -15.872
REMARK INTER:                 -14.683
REMARK INTRA:                  -1.190
REMARK UNBOUND:                -1.190
REMARK SMILES N#Cc1c(N2CCC[C@H](N)C2)n(Cc2ccccc2)c2c(=O)n(Cc3ccnc4ccccc34)cnc12
REMARK SMILES IDX 23 1 35 2 36 3 21 4 20 5 37 6 3 7 4 8 12 9 2 10 1 11 22 12
REMARK SMILES IDX 24 13 25 14 34 15 26 16 33 17 29 18 27 19 32 20 30 21 28 22
REMARK SMILES IDX 31 23 13 24 14 25 15 26 19 27 16 28 18 29 17 30 5 31 11 32
REMARK SMILES IDX 6 33 9 34 7 35 8 36 10 37
REMARK H PARENT 10 38 10 39
ROOT
ATOM      1  N   UNL     1      12.023  36.534  54.649  1.00  0.00    -0.293 N 
ATOM      2  C   UNL     1      11.364  35.356  54.803  1.00  0.00     0.203 A 
ATOM      3  N   UNL     1      11.962  34.220  54.782  1.00  0.00    -0.235 NA
ATOM      4  C   UNL     1      13.353  36.617  54.319  1.00  0.00     0.278 A 
ATOM      5  C   UNL     1      14.046  35.339  54.122  1.00  0.00     0.137 A 
ATOM      6  C   UNL     1      13.367  34.229  54.474  1.00  0.00     0.116 A 
ATOM      7  C   UNL     1      14.282  33.137  54.326  1.00  0.00     0.121 A 
ATOM      8  C   UNL     1      15.443  33.666  53.898  1.00  0.00     0.130 A 
ATOM      9  N   UNL     1      15.296  34.998  53.881  1.00  0.00    -0.316 N 
ATOM     10  C   UNL     1      13.847  31.787  54.607  1.00  0.00     0.105 C 
ATOM     11  N   UNL     1      13.491  30.701  54.784  1.00  0.00    -0.192 NA
ATOM     12  O   UNL     1      13.974  37.675  54.174  1.00  0.00    -0.267 OA
ENDROOT
BRANCH   1  13
ATOM     13  C   UNL     1      11.287  37.787  54.905  1.00  0.00     0.163 C 
BRANCH  13  14
ATOM     14  C   UNL     1      10.734  37.841  56.336  1.00  0.00    -0.017 A 
ATOM     15  C   UNL     1       9.451  38.418  56.565  1.00  0.00     0.005 A 
ATOM     16  C   UNL     1      11.520  37.461  57.449  1.00  0.00     0.026 A 
ATOM     17  C   UNL     1       8.697  39.041  55.536  1.00  0.00     0.011 A 
ATOM     18  C   UNL     1       8.978  38.455  57.889  1.00  0.00     0.070 A 
ATOM     19  C   UNL     1      10.990  37.507  58.748  1.00  0.00     0.112 A 
ATOM     20  C   UNL     1       7.445  39.595  55.823  1.00  0.00     0.001 A 
ATOM     21  C   UNL     1       7.722  39.011  58.185  1.00  0.00     0.029 A 
ATOM     22  N   UNL     1       9.723  37.939  58.917  1.00  0.00    -0.256 NA
ATOM     23  C   UNL     1       6.941  39.546  57.140  1.00  0.00     0.002 A 
ENDBRANCH  13  14
ENDBRANCH   1  13
BRANCH   9  24
ATOM     24  C   UNL     1      16.205  35.857  53.131  1.00  0.00     0.160 C 
BRANCH  24  25
ATOM     25  C   UNL     1      17.261  36.623  53.893  1.00  0.00    -0.028 A 
ATOM     26  C   UNL     1      18.199  37.309  53.107  1.00  0.00     0.005 A 
ATOM     27  C   UNL     1      17.279  36.632  55.295  1.00  0.00     0.005 A 
ATOM     28  C   UNL     1      19.207  38.031  53.760  1.00  0.00     0.000 A 
ATOM     29  C   UNL     1      18.274  37.399  55.919  1.00  0.00     0.000 A 
ATOM     30  C   UNL     1      19.193  38.104  55.158  1.00  0.00     0.000 A 
ENDBRANCH  24  25
ENDBRANCH   9  24
BRANCH   8  31
ATOM     31  N   UNL     1      16.536  32.931  53.794  1.00  0.00    -0.355 N 
ATOM     32  C   UNL     1      17.556  33.065  54.872  1.00  0.00     0.136 C 
ATOM     33  C   UNL     1      16.612  31.711  52.945  1.00  0.00     0.118 C 
ATOM     34  C   UNL     1      18.994  32.813  54.417  1.00  0.00     0.070 C 
ATOM     35  C   UNL     1      18.078  31.332  52.613  1.00  0.00     0.023 C 
ATOM     36  C   UNL     1      18.947  31.337  53.907  1.00  0.00     0.022 C 
BRANCH  34  37
ATOM     37  N   UNL     1      19.888  32.911  55.590  1.00  0.00    -0.326 NA
ATOM     38  H   UNL     1      19.365  33.297  56.389  1.00  0.00     0.119 HD
ATOM     39  H   UNL     1      20.242  31.975  55.831  1.00  0.00     0.119 HD
ENDBRANCH  34  37
ENDBRANCH   8  31
TORSDOF 6
ENDMDL
MODEL 2
REMARK VINA RESULT:   -10.547      0.860      1.804
REMARK INTER + INTRA:         -15.128
REMARK INTER:                 -14.517
REMARK INTRA:                  -0.611
REMARK UNBOUND:                -1.190
REMARK SMILES N#Cc1c(N2CCC[C@H](N)C2)n(Cc2ccccc2)c2c(=O)n(Cc3ccnc4ccccc34)cnc12
REMARK SMILES IDX 23 1 35 2 36 3 21 4 20 5 37 6 3 7 4 8 12 9 2 10 1 11 22 12
REMARK SMILES IDX 24 13 25 14 34 15 26 16 33 17 29 18 27 19 32 20 30 21 28 22
REMARK SMILES IDX 31 23 13 24 14 25 15 26 19 27 16 28 18 29 17 30 5 31 11 32
REMARK SMILES IDX 6 33 9 34 7 35 8 36 10 37
REMARK H PARENT 10 38 10 39
ROOT
ATOM      1  N   UNL     1      12.107  36.719  54.497  1.00  0.00    -0.293 N 
ATOM      2  C   UNL     1      11.402  35.573  54.690  1.00  0.00     0.203 A 
ATOM      3  N   UNL     1      11.960  34.418  54.738  1.00  0.00    -0.235 NA
ATOM      4  C   UNL     1      13.447  36.740  54.199  1.00  0.00     0.278 A 
ATOM      5  C   UNL     1      14.098  35.431  54.081  1.00  0.00     0.137 A 
ATOM      6  C   UNL     1      13.371  34.364  54.467  1.00  0.00     0.116 A 
ATOM      7  C   UNL     1      14.250  33.235  54.395  1.00  0.00     0.121 A 
ATOM      8  C   UNL     1      15.440  33.703  53.973  1.00  0.00     0.130 A 
ATOM      9  N   UNL     1      15.341  35.037  53.890  1.00  0.00    -0.316 N 
ATOM     10  C   UNL     1      13.761  31.916  54.728  1.00  0.00     0.105 C 
ATOM     11  N   UNL     1      13.362  30.853  54.947  1.00  0.00    -0.192 NA
ATOM     12  O   UNL     1      14.108  37.768  54.021  1.00  0.00    -0.267 OA
ENDROOT
BRANCH   1  13
ATOM     13  C   UNL     1      11.410  38.008  54.674  1.00  0.00     0.163 C 
BRANCH  13  14
ATOM     14  C   UNL     1      10.152  37.861  55.543  1.00  0.00    -0.017 A 
ATOM     15  C   UNL     1      10.295  37.686  56.950  1.00  0.00     0.005 A 
ATOM     16  C   UNL     1       8.863  37.756  54.968  1.00  0.00     0.026 A 
ATOM     17  C   UNL     1      11.558  37.538  57.579  1.00  0.00     0.011 A 
ATOM     18  C   UNL     1       9.121  37.550  57.713  1.00  0.00     0.070 A 
ATOM     19  C   UNL     1       7.726  37.635  55.782  1.00  0.00     0.112 A 
ATOM     20  C   UNL     1      11.634  37.364  58.964  1.00  0.00     0.001 A 
ATOM     21  C   UNL     1       9.190  37.373  59.105  1.00  0.00     0.029 A 
ATOM     22  N   UNL     1       7.886  37.601  57.121  1.00  0.00    -0.256 NA
ATOM     23  C   UNL     1      10.452  37.319  59.732  1.00  0.00     0.002 A 
ENDBRANCH  13  14
ENDBRANCH   1  13
BRANCH   9  24
ATOM     24  C   UNL     1      16.298  35.826  53.124  1.00  0.00     0.160 C 
BRANCH  24  25
ATOM     25  C   UNL     1      17.339  36.620  53.878  1.00  0.00    -0.028 A 
ATOM     26  C   UNL     1      18.257  37.324  53.085  1.00  0.00     0.005 A 
ATOM     27  C   UNL     1      17.363  36.635  55.280  1.00  0.00     0.005 A 
ATOM     28  C   UNL     1      19.251  38.073  53.731  1.00  0.00     0.000 A 
ATOM     29  C   UNL     1      18.343  37.428  55.897  1.00  0.00     0.000 A 
ATOM     30  C   UNL     1      19.242  38.150  55.128  1.00  0.00     0.000 A 
ENDBRANCH  24  25
ENDBRANCH   9  24
BRANCH   8  31
ATOM     31  N   UNL     1      16.508  32.926  53.933  1.00  0.00    -0.355 N 
ATOM     32  C   UNL     1      17.561  33.158  54.961  1.00  0.00     0.136 C 
ATOM     33  C   UNL     1      16.525  31.611  53.237  1.00  0.00     0.118 C 
ATOM     34  C   UNL     1      18.978  32.807  54.505  1.00  0.00     0.070 C 
ATOM     35  C   UNL     1      17.971  31.147  52.918  1.00  0.00     0.023 C 
ATOM     36  C   UNL     1      18.876  31.282  54.180  1.00  0.00     0.022 C 
BRANCH  34  37
ATOM     37  N   UNL     1      19.907  33.018  55.635  1.00  0.00    -0.326 NA
ATOM     38  H   UNL     1      19.998  34.027  55.822  1.00  0.00     0.119 HD
ATOM     39  H   UNL     1      19.541  32.545  56.474  1.00  0.00     0.119 HD
ENDBRANCH  34  37
ENDBRANCH   8  31
TORSDOF 6
ENDMDL
MODEL 3
REMARK VINA RESULT:   -10.428      1.788      2.291
REMARK INTER + INTRA:         -14.970
REMARK INTER:                 -13.463
REMARK INTRA:                  -1.508
REMARK UNBOUND:                -1.190
REMARK SMILES N#Cc1c(N2CCC[C@H](N)C2)n(Cc2ccccc2)c2c(=O)n(Cc3ccnc4ccccc34)cnc12
REMARK SMILES IDX 23 1 35 2 36 3 21 4 20 5 37 6 3 7 4 8 12 9 2 10 1 11 22 12
REMARK SMILES IDX 24 13 25 14 34 15 26 16 33 17 29 18 27 19 32 20 30 21 28 22
REMARK SMILES IDX 31 23 13 24 14 25 15 26 19 27 16 28 18 29 17 30 5 31 11 32
REMARK SMILES IDX 6 33 9 34 7 35 8 36 10 37
REMARK H PARENT 10 38 10 39
ROOT
ATOM      1  N   UNL     1      11.703  35.743  56.963  1.00  0.00    -0.293 N 
ATOM      2  C   UNL     1      11.321  34.472  57.258  1.00  0.00     0.203 A 
ATOM      3  N   UNL     1      12.043  33.449  56.972  1.00  0.00    -0.235 NA
ATOM      4  C   UNL     1      12.813  36.043  56.214  1.00  0.00     0.278 A 
ATOM      5  C   UNL     1      13.584  34.896  55.722  1.00  0.00     0.137 A 
ATOM      6  C   UNL     1      13.242  33.689  56.215  1.00  0.00     0.116 A 
ATOM      7  C   UNL     1      14.208  32.761  55.706  1.00  0.00     0.121 A 
ATOM      8  C   UNL     1      15.061  33.475  54.948  1.00  0.00     0.130 A 
ATOM      9  N   UNL     1      14.716  34.765  55.059  1.00  0.00    -0.316 N 
ATOM     10  C   UNL     1      14.105  31.358  56.036  1.00  0.00     0.105 C 
ATOM     11  N   UNL     1      14.000  30.227  56.257  1.00  0.00    -0.192 NA
ATOM     12  O   UNL     1      13.180  37.189  55.934  1.00  0.00    -0.267 OA
ENDROOT
BRANCH   1  13
ATOM     13  C   UNL     1      10.914  36.858  57.523  1.00  0.00     0.163 C 
BRANCH  13  14
ATOM     14  C   UNL     1      11.048  36.940  59.050  1.00  0.00    -0.017 A 
ATOM     15  C   UNL     1       9.916  37.320  59.828  1.00  0.00     0.005 A 
ATOM     16  C   UNL     1      12.298  36.784  59.693  1.00  0.00     0.026 A 
ATOM     17  C   UNL     1       8.688  37.727  59.245  1.00  0.00     0.011 A 
ATOM     18  C   UNL     1      10.077  37.389  61.224  1.00  0.00     0.070 A 
ATOM     19  C   UNL     1      12.396  36.851  61.093  1.00  0.00     0.112 A 
ATOM     20  C   UNL     1       7.613  38.094  60.062  1.00  0.00     0.001 A 
ATOM     21  C   UNL     1       9.002  37.759  62.050  1.00  0.00     0.029 A 
ATOM     22  N   UNL     1      11.278  37.086  61.810  1.00  0.00    -0.256 NA
ATOM     23  C   UNL     1       7.759  38.073  61.464  1.00  0.00     0.002 A 
ENDBRANCH  13  14
ENDBRANCH   1  13
BRANCH   9  24
ATOM     24  C   UNL     1      15.175  35.763  54.102  1.00  0.00     0.160 C 
BRANCH  24  25
ATOM     25  C   UNL     1      16.545  36.370  54.298  1.00  0.00    -0.028 A 
ATOM     26  C   UNL     1      17.262  36.645  53.125  1.00  0.00     0.005 A 
ATOM     27  C   UNL     1      17.044  36.631  55.583  1.00  0.00     0.005 A 
ATOM     28  C   UNL     1      18.542  37.202  53.247  1.00  0.00     0.000 A 
ATOM     29  C   UNL     1      18.310  37.227  55.671  1.00  0.00     0.000 A 
ATOM     30  C   UNL     1      19.021  37.530  54.520  1.00  0.00     0.000 A 
ENDBRANCH  24  25
ENDBRANCH   9  24
BRANCH   8  31
ATOM     31  N   UNL     1      16.152  32.928  54.442  1.00  0.00    -0.355 N 
ATOM     32  C   UNL     1      17.391  32.985  55.269  1.00  0.00     0.136 C 
ATOM     33  C   UNL     1      16.120  31.921  53.348  1.00  0.00     0.118 C 
ATOM     34  C   UNL     1      18.689  33.023  54.461  1.00  0.00     0.070 C 
ATOM     35  C   UNL     1      17.487  31.814  52.622  1.00  0.00     0.023 C 
ATOM     36  C   UNL     1      18.643  31.683  53.659  1.00  0.00     0.022 C 
BRANCH  34  37
ATOM     37  N   UNL     1      19.833  33.008  55.398  1.00  0.00    -0.326 NA
ATOM     38  H   UNL     1      20.412  32.176  55.220  1.00  0.00     0.119 HD
ATOM     39  H   UNL     1      20.399  33.857  55.261  1.00  0.00     0.119 HD
ENDBRANCH  34  37
ENDBRANCH   8  31
TORSDOF 6
ENDMDL
MODEL 4
REMARK VINA RESULT:   -10.265      1.691      2.369
REMARK INTER + INTRA:         -14.755
REMARK INTER:                 -14.037
REMARK INTRA:                  -0.719
REMARK UNBOUND:                -1.190
REMARK SMILES N#Cc1c(N2CCC[C@H](N)C2)n(Cc2ccccc2)c2c(=O)n(Cc3ccnc4ccccc34)cnc12
REMARK SMILES IDX 23 1 35 2 36 3 21 4 20 5 37 6 3 7 4 8 12 9 2 10 1 11 22 12
REMARK SMILES IDX 24 13 25 14 34 15 26 16 33 17 29 18 27 19 32 20 30 21 28 22
REMARK SMILES IDX 31 23 13 24 14 25 15 26 19 27 16 28 18 29 17 30 5 31 11 32
REMARK SMILES IDX 6 33 9 34 7 35 8 36 10 37
REMARK H PARENT 10 38 10 39
ROOT
ATOM      1  N   UNL     1      12.748  35.768  56.070  1.00  0.00    -0.293 N 
ATOM      2  C   UNL     1      12.020  35.225  55.058  1.00  0.00     0.203 A 
ATOM      3  N   UNL     1      12.443  34.240  54.352  1.00  0.00    -0.235 NA
ATOM      4  C   UNL     1      14.047  35.414  56.338  1.00  0.00     0.278 A 
ATOM      5  C   UNL     1      14.634  34.404  55.450  1.00  0.00     0.137 A 
ATOM      6  C   UNL     1      13.787  33.792  54.599  1.00  0.00     0.116 A 
ATOM      7  C   UNL     1      14.548  32.768  53.946  1.00  0.00     0.121 A 
ATOM      8  C   UNL     1      15.794  32.837  54.452  1.00  0.00     0.130 A 
ATOM      9  N   UNL     1      15.784  33.763  55.421  1.00  0.00    -0.316 N 
ATOM     10  C   UNL     1      13.927  31.934  52.943  1.00  0.00     0.105 C 
ATOM     11  N   UNL     1      13.447  31.297  52.105  1.00  0.00    -0.192 NA
ATOM     12  O   UNL     1      14.728  35.892  57.251  1.00  0.00    -0.267 OA
ENDROOT
BRANCH   1  13
ATOM     13  C   UNL     1      12.091  36.745  56.959  1.00  0.00     0.163 C 
BRANCH  13  14
ATOM     14  C   UNL     1      11.164  37.690  56.182  1.00  0.00    -0.017 A 
ATOM     15  C   UNL     1      10.028  38.246  56.838  1.00  0.00     0.005 A 
ATOM     16  C   UNL     1      11.330  37.915  54.795  1.00  0.00     0.026 A 
ATOM     17  C   UNL     1       9.653  37.883  58.158  1.00  0.00     0.011 A 
ATOM     18  C   UNL     1       9.199  39.104  56.094  1.00  0.00     0.070 A 
ATOM     19  C   UNL     1      10.478  38.793  54.106  1.00  0.00     0.112 A 
ATOM     20  C   UNL     1       8.523  38.459  58.748  1.00  0.00     0.001 A 
ATOM     21  C   UNL     1       8.061  39.685  56.680  1.00  0.00     0.029 A 
ATOM     22  N   UNL     1       9.486  39.404  54.788  1.00  0.00    -0.256 NA
ATOM     23  C   UNL     1       7.749  39.388  58.022  1.00  0.00     0.002 A 
ENDBRANCH  13  14
ENDBRANCH   1  13
BRANCH   9  24
ATOM     24  C   UNL     1      17.018  34.356  55.921  1.00  0.00     0.160 C 
BRANCH  24  25
ATOM     25  C   UNL     1      17.561  35.580  55.222  1.00  0.00    -0.028 A 
ATOM     26  C   UNL     1      17.929  36.645  56.058  1.00  0.00     0.005 A 
ATOM     27  C   UNL     1      17.680  35.623  53.825  1.00  0.00     0.005 A 
ATOM     28  C   UNL     1      18.432  37.810  55.463  1.00  0.00     0.000 A 
ATOM     29  C   UNL     1      18.227  36.786  53.263  1.00  0.00     0.000 A 
ATOM     30  C   UNL     1      18.619  37.837  54.077  1.00  0.00     0.000 A 
ENDBRANCH  24  25
ENDBRANCH   9  24
BRANCH   8  31
ATOM     31  N   UNL     1      16.708  31.931  54.151  1.00  0.00    -0.355 N 
ATOM     32  C   UNL     1      16.722  30.679  54.959  1.00  0.00     0.136 C 
ATOM     33  C   UNL     1      17.405  31.891  52.837  1.00  0.00     0.118 C 
ATOM     34  C   UNL     1      18.100  30.032  55.099  1.00  0.00     0.070 C 
ATOM     35  C   UNL     1      18.728  31.085  52.912  1.00  0.00     0.023 C 
ATOM     36  C   UNL     1      18.492  29.717  53.619  1.00  0.00     0.022 C 
BRANCH  34  37
ATOM     37  N   UNL     1      17.959  28.772  55.860  1.00  0.00    -0.326 NA
ATOM     38  H   UNL     1      18.540  28.041  55.426  1.00  0.00     0.119 HD
ATOM     39  H   UNL     1      18.264  28.922  56.832  1.00  0.00     0.119 HD
ENDBRANCH  34  37
ENDBRANCH   8  31
TORSDOF 6
ENDMDL
MODEL 5
REMARK VINA RESULT:   -10.143      1.479      2.091
REMARK INTER + INTRA:         -14.594
REMARK INTER:                 -13.252
REMARK INTRA:                  -1.342
REMARK UNBOUND:                -1.190
REMARK SMILES N#Cc1c(N2CCC[C@H](N)C2)n(Cc2ccccc2)c2c(=O)n(Cc3ccnc4ccccc34)cnc12
REMARK SMILES IDX 23 1 35 2 36 3 21 4 20 5 37 6 3 7 4 8 12 9 2 10 1 11 22 12
REMARK SMILES IDX 24 13 25 14 34 15 26 16 33 17 29 18 27 19 32 20 30 21 28 22
REMARK SMILES IDX 31 23 13 24 14 25 15 26 19 27 16 28 18 29 17 30 5 31 11 32
REMARK SMILES IDX 6 33 9 34 7 35 8 36 10 37
REMARK H PARENT 10 38 10 39
ROOT
ATOM      1  N   UNL     1      11.918  36.075  56.931  1.00  0.00    -0.293 N 
ATOM      2  C   UNL     1      11.509  34.853  57.365  1.00  0.00     0.203 A 
ATOM      3  N   UNL     1      12.184  33.783  57.152  1.00  0.00    -0.235 NA
ATOM      4  C   UNL     1      13.004  36.261  56.114  1.00  0.00     0.278 A 
ATOM      5  C   UNL     1      13.716  35.045  55.707  1.00  0.00     0.137 A 
ATOM      6  C   UNL     1      13.357  33.905  56.328  1.00  0.00     0.116 A 
ATOM      7  C   UNL     1      14.270  32.898  55.875  1.00  0.00     0.121 A 
ATOM      8  C   UNL     1      15.112  33.504  55.018  1.00  0.00     0.130 A 
ATOM      9  N   UNL     1      14.814  34.810  55.016  1.00  0.00    -0.316 N 
ATOM     10  C   UNL     1      14.137  31.537  56.345  1.00  0.00     0.105 C 
ATOM     11  N   UNL     1      14.004  30.438  56.680  1.00  0.00    -0.192 NA
ATOM     12  O   UNL     1      13.395  37.361  55.708  1.00  0.00    -0.267 OA
ENDROOT
BRANCH   1  13
ATOM     13  C   UNL     1      11.190  37.267  57.410  1.00  0.00     0.163 C 
BRANCH  13  14
ATOM     14  C   UNL     1       9.989  37.600  56.514  1.00  0.00    -0.017 A 
ATOM     15  C   UNL     1       8.819  38.165  57.100  1.00  0.00     0.005 A 
ATOM     16  C   UNL     1       9.961  37.235  55.147  1.00  0.00     0.026 A 
ATOM     17  C   UNL     1       8.673  38.342  58.500  1.00  0.00     0.011 A 
ATOM     18  C   UNL     1       7.737  38.454  56.249  1.00  0.00     0.070 A 
ATOM     19  C   UNL     1       8.857  37.561  54.343  1.00  0.00     0.112 A 
ATOM     20  C   UNL     1       7.498  38.897  59.017  1.00  0.00     0.001 A 
ATOM     21  C   UNL     1       6.553  39.010  56.762  1.00  0.00     0.029 A 
ATOM     22  N   UNL     1       7.816  38.212  54.903  1.00  0.00    -0.256 NA
ATOM     23  C   UNL     1       6.454  39.266  58.145  1.00  0.00     0.002 A 
ENDBRANCH  13  14
ENDBRANCH   1  13
BRANCH   9  24
ATOM     24  C   UNL     1      15.264  35.694  53.948  1.00  0.00     0.160 C 
BRANCH  24  25
ATOM     25  C   UNL     1      16.597  36.389  54.104  1.00  0.00    -0.028 A 
ATOM     26  C   UNL     1      16.988  36.661  55.423  1.00  0.00     0.005 A 
ATOM     27  C   UNL     1      17.372  36.728  52.986  1.00  0.00     0.005 A 
ATOM     28  C   UNL     1      18.212  37.312  55.629  1.00  0.00     0.000 A 
ATOM     29  C   UNL     1      18.612  37.339  53.226  1.00  0.00     0.000 A 
ATOM     30  C   UNL     1      19.025  37.592  54.524  1.00  0.00     0.000 A 
ENDBRANCH  24  25
ENDBRANCH   9  24
BRANCH   8  31
ATOM     31  N   UNL     1      16.163  32.871  54.526  1.00  0.00    -0.355 N 
ATOM     32  C   UNL     1      17.435  32.957  55.297  1.00  0.00     0.136 C 
ATOM     33  C   UNL     1      16.052  31.770  53.532  1.00  0.00     0.118 C 
ATOM     34  C   UNL     1      18.700  32.871  54.442  1.00  0.00     0.070 C 
ATOM     35  C   UNL     1      17.384  31.545  52.770  1.00  0.00     0.023 C 
ATOM     36  C   UNL     1      18.576  31.465  53.771  1.00  0.00     0.022 C 
BRANCH  34  37
ATOM     37  N   UNL     1      19.879  32.899  55.334  1.00  0.00    -0.326 NA
ATOM     38  H   UNL     1      20.739  32.916  54.767  1.00  0.00     0.119 HD
ATOM     39  H   UNL     1      19.842  33.741  55.926  1.00  0.00     0.119 HD
ENDBRANCH  34  37
ENDBRANCH   8  31
TORSDOF 6
ENDMDL
MODEL 6
REMARK VINA RESULT:    -9.947      2.073      2.922
REMARK INTER + INTRA:         -14.336
REMARK INTER:                 -12.793
REMARK INTRA:                  -1.543
REMARK UNBOUND:                -1.190
REMARK SMILES N#Cc1c(N2CCC[C@H](N)C2)n(Cc2ccccc2)c2c(=O)n(Cc3ccnc4ccccc34)cnc12
REMARK SMILES IDX 23 1 35 2 36 3 21 4 20 5 37 6 3 7 4 8 12 9 2 10 1 11 22 12
REMARK SMILES IDX 24 13 25 14 34 15 26 16 33 17 29 18 27 19 32 20 30 21 28 22
REMARK SMILES IDX 31 23 13 24 14 25 15 26 19 27 16 28 18 29 17 30 5 31 11 32
REMARK SMILES IDX 6 33 9 34 7 35 8 36 10 37
REMARK H PARENT 10 38 10 39
ROOT
ATOM      1  N   UNL     1      13.176  35.259  57.533  1.00  0.00    -0.293 N 
ATOM      2  C   UNL     1      12.579  34.196  58.135  1.00  0.00     0.203 A 
ATOM      3  N   UNL     1      12.864  32.981  57.833  1.00  0.00    -0.235 NA
ATOM      4  C   UNL     1      14.024  35.140  56.460  1.00  0.00     0.278 A 
ATOM      5  C   UNL     1      14.253  33.776  55.971  1.00  0.00     0.137 A 
ATOM      6  C   UNL     1      13.772  32.777  56.737  1.00  0.00     0.116 A 
ATOM      7  C   UNL     1      14.232  31.559  56.139  1.00  0.00     0.121 A 
ATOM      8  C   UNL     1      14.956  31.912  55.061  1.00  0.00     0.130 A 
ATOM      9  N   UNL     1      15.030  33.250  55.047  1.00  0.00    -0.316 N 
ATOM     10  C   UNL     1      13.863  30.286  56.717  1.00  0.00     0.105 C 
ATOM     11  N   UNL     1      13.531  29.265  57.147  1.00  0.00    -0.192 NA
ATOM     12  O   UNL     1      14.579  36.090  55.898  1.00  0.00    -0.267 OA
ENDROOT
BRANCH   1  13
ATOM     13  C   UNL     1      12.945  36.603  58.097  1.00  0.00     0.163 C 
BRANCH  13  14
ATOM     14  C   UNL     1      11.535  37.120  57.779  1.00  0.00    -0.017 A 
ATOM     15  C   UNL     1      10.636  37.392  58.850  1.00  0.00     0.005 A 
ATOM     16  C   UNL     1      11.059  37.202  56.449  1.00  0.00     0.026 A 
ATOM     17  C   UNL     1      10.950  37.109  60.205  1.00  0.00     0.011 A 
ATOM     18  C   UNL     1       9.351  37.861  58.521  1.00  0.00     0.070 A 
ATOM     19  C   UNL     1       9.770  37.690  56.180  1.00  0.00     0.112 A 
ATOM     20  C   UNL     1      10.023  37.393  61.213  1.00  0.00     0.001 A 
ATOM     21  C   UNL     1       8.414  38.147  59.529  1.00  0.00     0.029 A 
ATOM     22  N   UNL     1       8.988  38.061  57.215  1.00  0.00    -0.256 NA
ATOM     23  C   UNL     1       8.770  37.947  60.878  1.00  0.00     0.002 A 
ENDBRANCH  13  14
ENDBRANCH   1  13
BRANCH   9  24
ATOM     24  C   UNL     1      15.411  33.980  53.843  1.00  0.00     0.160 C 
BRANCH  24  25
ATOM     25  C   UNL     1      16.723  34.728  53.843  1.00  0.00    -0.028 A 
ATOM     26  C   UNL     1      16.697  35.999  53.249  1.00  0.00     0.005 A 
ATOM     27  C   UNL     1      17.878  34.166  54.406  1.00  0.00     0.005 A 
ATOM     28  C   UNL     1      17.888  36.737  53.213  1.00  0.00     0.000 A 
ATOM     29  C   UNL     1      19.044  34.947  54.393  1.00  0.00     0.000 A 
ATOM     30  C   UNL     1      19.029  36.214  53.834  1.00  0.00     0.000 A 
ENDBRANCH  24  25
ENDBRANCH   9  24
BRANCH   8  31
ATOM     31  N   UNL     1      15.634  31.015  54.366  1.00  0.00    -0.355 N 
ATOM     32  C   UNL     1      16.996  30.659  54.856  1.00  0.00     0.136 C 
ATOM     33  C   UNL     1      14.987  30.061  53.427  1.00  0.00     0.118 C 
ATOM     34  C   UNL     1      17.973  30.236  53.757  1.00  0.00     0.070 C 
ATOM     35  C   UNL     1      16.000  29.480  52.406  1.00  0.00     0.023 C 
ATOM     36  C   UNL     1      17.282  28.979  53.138  1.00  0.00     0.022 C 
BRANCH  34  37
ATOM     37  N   UNL     1      19.254  29.848  54.383  1.00  0.00    -0.326 NA
ATOM     38  H   UNL     1      19.442  28.854  54.192  1.00  0.00     0.119 HD
ATOM     39  H   UNL     1      20.015  30.423  53.995  1.00  0.00     0.119 HD
ENDBRANCH  34  37
ENDBRANCH   8  31
TORSDOF 6
ENDMDL
MODEL 7
REMARK VINA RESULT:    -9.791      2.600      8.563
REMARK INTER + INTRA:         -14.129
REMARK INTER:                 -13.952
REMARK INTRA:                  -0.178
REMARK UNBOUND:                -1.190
REMARK SMILES N#Cc1c(N2CCC[C@H](N)C2)n(Cc2ccccc2)c2c(=O)n(Cc3ccnc4ccccc34)cnc12
REMARK SMILES IDX 23 1 35 2 36 3 21 4 20 5 37 6 3 7 4 8 12 9 2 10 1 11 22 12
REMARK SMILES IDX 24 13 25 14 34 15 26 16 33 17 29 18 27 19 32 20 30 21 28 22
REMARK SMILES IDX 31 23 13 24 14 25 15 26 19 27 16 28 18 29 17 30 5 31 11 32
REMARK SMILES IDX 6 33 9 34 7 35 8 36 10 37
REMARK H PARENT 10 38 10 39
ROOT
ATOM      1  N   UNL     1      17.270  31.685  53.739  1.00  0.00    -0.293 N 
ATOM      2  C   UNL     1      16.816  30.993  54.818  1.00  0.00     0.203 A 
ATOM      3  N   UNL     1      15.808  31.380  55.512  1.00  0.00    -0.235 NA
ATOM      4  C   UNL     1      16.791  32.920  53.378  1.00  0.00     0.278 A 
ATOM      5  C   UNL     1      15.746  33.480  54.242  1.00  0.00     0.137 A 
ATOM      6  C   UNL     1      15.231  32.652  55.172  1.00  0.00     0.116 A 
ATOM      7  C   UNL     1      14.151  33.365  55.787  1.00  0.00     0.121 A 
ATOM      8  C   UNL     1      14.093  34.566  55.183  1.00  0.00     0.130 A 
ATOM      9  N   UNL     1      14.999  34.564  54.196  1.00  0.00    -0.316 N 
ATOM     10  C   UNL     1      13.396  32.751  56.857  1.00  0.00     0.105 C 
ATOM     11  N   UNL     1      12.822  32.284  57.745  1.00  0.00    -0.192 NA
ATOM     12  O   UNL     1      17.187  33.566  52.402  1.00  0.00    -0.267 OA
ENDROOT
BRANCH   1  13
ATOM     13  C   UNL     1      18.290  31.052  52.880  1.00  0.00     0.163 C 
BRANCH  13  14
ATOM     14  C   UNL     1      18.321  29.527  53.062  1.00  0.00    -0.017 A 
ATOM     15  C   UNL     1      17.181  28.759  52.688  1.00  0.00     0.005 A 
ATOM     16  C   UNL     1      19.396  28.882  53.717  1.00  0.00     0.026 A 
ATOM     17  C   UNL     1      15.970  29.351  52.246  1.00  0.00     0.011 A 
ATOM     18  C   UNL     1      17.245  27.366  52.873  1.00  0.00     0.070 A 
ATOM     19  C   UNL     1      19.410  27.485  53.862  1.00  0.00     0.112 A 
ATOM     20  C   UNL     1      14.882  28.543  51.898  1.00  0.00     0.001 A 
ATOM     21  C   UNL     1      16.155  26.548  52.527  1.00  0.00     0.029 A 
ATOM     22  N   UNL     1      18.370  26.773  53.381  1.00  0.00    -0.256 NA
ATOM     23  C   UNL     1      14.988  27.141  52.002  1.00  0.00     0.002 A 
ENDBRANCH  13  14
ENDBRANCH   1  13
BRANCH   9  24
ATOM     24  C   UNL     1      15.465  35.804  53.585  1.00  0.00     0.160 C 
BRANCH  24  25
ATOM     25  C   UNL     1      16.742  36.423  54.102  1.00  0.00    -0.028 A 
ATOM     26  C   UNL     1      17.618  36.915  53.123  1.00  0.00     0.005 A 
ATOM     27  C   UNL     1      17.010  36.489  55.477  1.00  0.00     0.005 A 
ATOM     28  C   UNL     1      18.823  37.493  53.545  1.00  0.00     0.000 A 
ATOM     29  C   UNL     1      18.204  37.112  55.869  1.00  0.00     0.000 A 
ATOM     30  C   UNL     1      19.069  37.627  54.916  1.00  0.00     0.000 A 
ENDBRANCH  24  25
ENDBRANCH   9  24
BRANCH   8  31
ATOM     31  N   UNL     1      13.111  35.414  55.433  1.00  0.00    -0.355 N 
ATOM     32  C   UNL     1      13.170  36.169  56.717  1.00  0.00     0.136 C 
ATOM     33  C   UNL     1      12.225  35.961  54.371  1.00  0.00     0.118 C 
ATOM     34  C   UNL     1      11.804  36.545  57.293  1.00  0.00     0.070 C 
ATOM     35  C   UNL     1      10.898  36.512  54.955  1.00  0.00     0.023 C 
ATOM     36  C   UNL     1      11.185  37.442  56.174  1.00  0.00     0.022 C 
BRANCH  34  37
ATOM     37  N   UNL     1      12.009  37.343  58.520  1.00  0.00    -0.326 NA
ATOM     38  H   UNL     1      11.126  37.804  58.782  1.00  0.00     0.119 HD
ATOM     39  H   UNL     1      12.314  36.725  59.285  1.00  0.00     0.119 HD
ENDBRANCH  34  37
ENDBRANCH   8  31
TORSDOF 6
ENDMDL
MODEL 8
REMARK VINA RESULT:    -9.710      2.811      8.790
REMARK INTER + INTRA:         -14.022
REMARK INTER:                 -12.574
REMARK INTRA:                  -1.448
REMARK UNBOUND:                -1.190
REMARK SMILES N#Cc1c(N2CCC[C@H](N)C2)n(Cc2ccccc2)c2c(=O)n(Cc3ccnc4ccccc34)cnc12
REMARK SMILES IDX 23 1 35 2 36 3 21 4 20 5 37 6 3 7 4 8 12 9 2 10 1 11 22 12
REMARK SMILES IDX 24 13 25 14 34 15 26 16 33 17 29 18 27 19 32 20 30 21 28 22
REMARK SMILES IDX 31 23 13 24 14 25 15 26 19 27 16 28 18 29 17 30 5 31 11 32
REMARK SMILES IDX 6 33 9 34 7 35 8 36 10 37
REMARK H PARENT 10 38 10 39
ROOT
ATOM      1  N   UNL     1      14.490  35.298  54.202  1.00  0.00    -0.293 N 
ATOM      2  C   UNL     1      14.322  36.617  53.919  1.00  0.00     0.203 A 
ATOM      3  N   UNL     1      13.194  37.215  54.054  1.00  0.00    -0.235 NA
ATOM      4  C   UNL     1      13.453  34.456  54.520  1.00  0.00     0.278 A 
ATOM      5  C   UNL     1      12.116  35.060  54.527  1.00  0.00     0.137 A 
ATOM      6  C   UNL     1      12.065  36.403  54.418  1.00  0.00     0.116 A 
ATOM      7  C   UNL     1      10.689  36.765  54.588  1.00  0.00     0.121 A 
ATOM      8  C   UNL     1      10.014  35.618  54.789  1.00  0.00     0.130 A 
ATOM      9  N   UNL     1      10.913  34.626  54.845  1.00  0.00    -0.316 N 
ATOM     10  C   UNL     1      10.292  38.152  54.502  1.00  0.00     0.105 C 
ATOM     11  N   UNL     1       9.962  39.254  54.386  1.00  0.00    -0.192 NA
ATOM     12  O   UNL     1      13.581  33.256  54.782  1.00  0.00    -0.267 OA
ENDROOT
BRANCH   1  13
ATOM     13  C   UNL     1      15.863  34.756  54.225  1.00  0.00     0.163 C 
BRANCH  13  14
ATOM     14  C   UNL     1      16.757  35.509  55.221  1.00  0.00    -0.017 A 
ATOM     15  C   UNL     1      17.663  36.495  54.734  1.00  0.00     0.005 A 
ATOM     16  C   UNL     1      16.804  35.152  56.589  1.00  0.00     0.026 A 
ATOM     17  C   UNL     1      17.852  36.745  53.350  1.00  0.00     0.011 A 
ATOM     18  C   UNL     1      18.469  37.161  55.675  1.00  0.00     0.070 A 
ATOM     19  C   UNL     1      17.620  35.862  57.484  1.00  0.00     0.112 A 
ATOM     20  C   UNL     1      18.760  37.724  52.934  1.00  0.00     0.001 A 
ATOM     21  C   UNL     1      19.385  38.144  55.263  1.00  0.00     0.029 A 
ATOM     22  N   UNL     1      18.372  36.878  57.012  1.00  0.00    -0.256 NA
ATOM     23  C   UNL     1      19.499  38.449  53.892  1.00  0.00     0.002 A 
ENDBRANCH  13  14
ENDBRANCH   1  13
BRANCH   9  24
ATOM     24  C   UNL     1      10.521  33.232  54.680  1.00  0.00     0.160 C 
BRANCH  24  25
ATOM     25  C   UNL     1      10.267  32.717  53.283  1.00  0.00    -0.028 A 
ATOM     26  C   UNL     1      11.247  31.857  52.765  1.00  0.00     0.005 A 
ATOM     27  C   UNL     1       9.118  33.091  52.571  1.00  0.00     0.005 A 
ATOM     28  C   UNL     1      11.068  31.355  51.469  1.00  0.00     0.000 A 
ATOM     29  C   UNL     1       8.946  32.538  51.293  1.00  0.00     0.000 A 
ATOM     30  C   UNL     1       9.891  31.666  50.777  1.00  0.00     0.000 A 
ENDBRANCH  24  25
ENDBRANCH   9  24
BRANCH   8  31
ATOM     31  N   UNL     1       8.734  35.624  55.115  1.00  0.00    -0.355 N 
ATOM     32  C   UNL     1       8.395  35.836  56.551  1.00  0.00     0.136 C 
ATOM     33  C   UNL     1       7.648  35.862  54.126  1.00  0.00     0.118 C 
ATOM     34  C   UNL     1       7.098  35.163  57.001  1.00  0.00     0.070 C 
ATOM     35  C   UNL     1       6.279  35.342  54.638  1.00  0.00     0.023 C 
ATOM     36  C   UNL     1       6.019  35.836  56.093  1.00  0.00     0.022 C 
BRANCH  34  37
ATOM     37  N   UNL     1       6.849  35.508  58.417  1.00  0.00    -0.326 NA
ATOM     38  H   UNL     1       6.102  34.906  58.791  1.00  0.00     0.119 HD
ATOM     39  H   UNL     1       7.711  35.366  58.961  1.00  0.00     0.119 HD
ENDBRANCH  34  37
ENDBRANCH   8  31
TORSDOF 6
ENDMDL
MODEL 9
REMARK VINA RESULT:    -9.546      1.903      2.583
REMARK INTER + INTRA:         -13.806
REMARK INTER:                 -12.316
REMARK INTRA:                  -1.489
REMARK UNBOUND:                -1.190
REMARK SMILES N#Cc1c(N2CCC[C@H](N)C2)n(Cc2ccccc2)c2c(=O)n(Cc3ccnc4ccccc34)cnc12
REMARK SMILES IDX 23 1 35 2 36 3 21 4 20 5 37 6 3 7 4 8 12 9 2 10 1 11 22 12
REMARK SMILES IDX 24 13 25 14 34 15 26 16 33 17 29 18 27 19 32 20 30 21 28 22
REMARK SMILES IDX 31 23 13 24 14 25 15 26 19 27 16 28 18 29 17 30 5 31 11 32
REMARK SMILES IDX 6 33 9 34 7 35 8 36 10 37
REMARK H PARENT 10 38 10 39
ROOT
ATOM      1  N   UNL     1      12.844  35.364  57.421  1.00  0.00    -0.293 N 
ATOM      2  C   UNL     1      12.292  34.286  58.040  1.00  0.00     0.203 A 
ATOM      3  N   UNL     1      12.671  33.083  57.802  1.00  0.00    -0.235 NA
ATOM      4  C   UNL     1      13.748  35.262  56.394  1.00  0.00     0.278 A 
ATOM      5  C   UNL     1      14.092  33.900  55.973  1.00  0.00     0.137 A 
ATOM      6  C   UNL     1      13.643  32.900  56.758  1.00  0.00     0.116 A 
ATOM      7  C   UNL     1      14.211  31.694  56.233  1.00  0.00     0.121 A 
ATOM      8  C   UNL     1      14.961  32.054  55.175  1.00  0.00     0.130 A 
ATOM      9  N   UNL     1      14.946  33.392  55.107  1.00  0.00    -0.316 N 
ATOM     10  C   UNL     1      13.902  30.423  56.846  1.00  0.00     0.105 C 
ATOM     11  N   UNL     1      13.618  29.399  57.303  1.00  0.00    -0.192 NA
ATOM     12  O   UNL     1      14.264  36.226  55.818  1.00  0.00    -0.267 OA
ENDROOT
BRANCH   1  13
ATOM     13  C   UNL     1      12.496  36.709  57.917  1.00  0.00     0.163 C 
BRANCH  13  14
ATOM     14  C   UNL     1      10.994  36.996  57.783  1.00  0.00    -0.017 A 
ATOM     15  C   UNL     1      10.482  37.454  56.535  1.00  0.00     0.005 A 
ATOM     16  C   UNL     1      10.129  36.952  58.902  1.00  0.00     0.026 A 
ATOM     17  C   UNL     1      11.318  37.756  55.429  1.00  0.00     0.011 A 
ATOM     18  C   UNL     1       9.102  37.711  56.450  1.00  0.00     0.070 A 
ATOM     19  C   UNL     1       8.756  37.206  58.754  1.00  0.00     0.112 A 
ATOM     20  C   UNL     1      10.757  38.207  54.230  1.00  0.00     0.001 A 
ATOM     21  C   UNL     1       8.532  38.166  55.249  1.00  0.00     0.029 A 
ATOM     22  N   UNL     1       8.281  37.512  57.529  1.00  0.00    -0.256 NA
ATOM     23  C   UNL     1       9.361  38.376  54.128  1.00  0.00     0.002 A 
ENDBRANCH  13  14
ENDBRANCH   1  13
BRANCH   9  24
ATOM     24  C   UNL     1      15.334  34.100  53.893  1.00  0.00     0.160 C 
BRANCH  24  25
ATOM     25  C   UNL     1      16.664  34.817  53.873  1.00  0.00    -0.028 A 
ATOM     26  C   UNL     1      16.655  36.097  53.300  1.00  0.00     0.005 A 
ATOM     27  C   UNL     1      17.817  34.218  54.401  1.00  0.00     0.005 A 
ATOM     28  C   UNL     1      17.862  36.806  53.247  1.00  0.00     0.000 A 
ATOM     29  C   UNL     1      19.001  34.970  54.372  1.00  0.00     0.000 A 
ATOM     30  C   UNL     1      19.004  36.247  53.833  1.00  0.00     0.000 A 
ENDBRANCH  24  25
ENDBRANCH   9  24
BRANCH   8  31
ATOM     31  N   UNL     1      15.731  31.180  54.549  1.00  0.00    -0.355 N 
ATOM     32  C   UNL     1      17.058  30.882  55.156  1.00  0.00     0.136 C 
ATOM     33  C   UNL     1      15.203  30.195  53.568  1.00  0.00     0.118 C 
ATOM     34  C   UNL     1      18.141  30.490  54.149  1.00  0.00     0.070 C 
ATOM     35  C   UNL     1      16.321  29.647  52.643  1.00  0.00     0.023 C 
ATOM     36  C   UNL     1      17.554  29.202  53.487  1.00  0.00     0.022 C 
BRANCH  34  37
ATOM     37  N   UNL     1      19.378  30.157  54.886  1.00  0.00    -0.326 NA
ATOM     38  H   UNL     1      19.227  30.303  55.895  1.00  0.00     0.119 HD
ATOM     39  H   UNL     1      19.625  29.172  54.715  1.00  0.00     0.119 HD
ENDBRANCH  34  37
ENDBRANCH   8  31
TORSDOF 6
ENDMDL
