MODEL 1
REMARK VINA RESULT:    -8.201      0.000      0.000
REMARK INTER + INTRA:         -12.206
REMARK INTER:                 -10.838
REMARK INTRA:                  -1.368
REMARK UNBOUND:                -1.368
REMARK SMILES N#Cc1c(N2CCC[C@H](N)C2)n(Cc2ccccc2)c2c(=O)n(Cc3ccnc4ccccc34)cnc12
REMARK SMILES IDX 23 1 35 2 36 3 21 4 20 5 37 6 3 7 4 8 12 9 2 10 1 11 22 12
REMARK SMILES IDX 24 13 25 14 34 15 26 16 33 17 29 18 27 19 32 20 30 21 28 22
REMARK SMILES IDX 31 23 13 24 14 25 15 26 19 27 16 28 18 29 17 30 5 31 11 32
REMARK SMILES IDX 6 33 9 34 7 35 8 36 10 37
REMARK H PARENT 10 38 10 39
ROOT
ATOM      1  N   UNL     1      11.873  35.656  57.072  1.00  0.00    -0.293 N 
ATOM      2  C   UNL     1      11.492  34.395  57.409  1.00  0.00     0.203 A 
ATOM      3  N   UNL     1      12.211  33.364  57.151  1.00  0.00    -0.235 NA
ATOM      4  C   UNL     1      12.980  35.931  56.309  1.00  0.00     0.278 A 
ATOM      5  C   UNL     1      13.747  34.769  55.849  1.00  0.00     0.137 A 
ATOM      6  C   UNL     1      13.406  33.578  56.381  1.00  0.00     0.116 A 
ATOM      7  C   UNL     1      14.369  32.634  55.896  1.00  0.00     0.121 A 
ATOM      8  C   UNL     1      15.218  33.323  55.112  1.00  0.00     0.130 A 
ATOM      9  N   UNL     1      14.875  34.616  55.185  1.00  0.00    -0.316 N 
ATOM     10  C   UNL     1      14.266  31.242  56.270  1.00  0.00     0.105 C 
ATOM     11  N   UNL     1      14.161  30.119  56.527  1.00  0.00    -0.192 NA
ATOM     12  O   UNL     1      13.346  37.068  55.991  1.00  0.00    -0.267 OA
ENDROOT
BRANCH   1  13
ATOM     13  C   UNL     1      11.089  36.789  57.602  1.00  0.00     0.163 C 
BRANCH  13  14
ATOM     14  C   UNL     1      11.147  36.857  59.134  1.00  0.00    -0.017 A 
ATOM     15  C   UNL     1       9.970  37.199  59.861  1.00  0.00     0.005 A 
ATOM     16  C   UNL     1      12.369  36.725  59.835  1.00  0.00     0.026 A 
ATOM     17  C   UNL     1       8.762  37.582  59.224  1.00  0.00     0.011 A 
ATOM     18  C   UNL     1      10.063  37.256  61.263  1.00  0.00     0.070 A 
ATOM     19  C   UNL     1      12.398  36.778  61.238  1.00  0.00     0.112 A 
ATOM     20  C   UNL     1       7.640  37.912  59.992  1.00  0.00     0.001 A 
ATOM     21  C   UNL     1       8.940  37.589  62.041  1.00  0.00     0.029 A 
ATOM     22  N   UNL     1      11.242  36.976  61.904  1.00  0.00    -0.256 NA
ATOM     23  C   UNL     1       7.719  37.879  61.400  1.00  0.00     0.002 A 
ENDBRANCH  13  14
ENDBRANCH   1  13
BRANCH   9  24
ATOM     24  C   UNL     1      15.331  35.584  54.194  1.00  0.00     0.160 C 
BRANCH  24  25
ATOM     25  C   UNL     1      16.650  36.283  54.427  1.00  0.00    -0.028 A 
ATOM     26  C   UNL     1      17.347  36.666  53.272  1.00  0.00     0.005 A 
ATOM     27  C   UNL     1      17.124  36.522  55.726  1.00  0.00     0.005 A 
ATOM     28  C   UNL     1      18.581  37.312  53.428  1.00  0.00     0.000 A 
ATOM     29  C   UNL     1      18.341  37.208  55.849  1.00  0.00     0.000 A 
ATOM     30  C   UNL     1      19.029  37.616  54.718  1.00  0.00     0.000 A 
ENDBRANCH  24  25
ENDBRANCH   9  24
BRANCH   8  31
ATOM     31  N   UNL     1      16.307  32.759  54.618  1.00  0.00    -0.355 N 
ATOM     32  C   UNL     1      17.543  32.817  55.448  1.00  0.00     0.136 C 
ATOM     33  C   UNL     1      16.269  31.737  53.538  1.00  0.00     0.118 C 
ATOM     34  C   UNL     1      18.844  32.832  54.644  1.00  0.00     0.070 C 
ATOM     35  C   UNL     1      17.637  31.608  52.819  1.00  0.00     0.023 C 
ATOM     36  C   UNL     1      18.789  31.481  53.861  1.00  0.00     0.022 C 
BRANCH  34  37
ATOM     37  N   UNL     1      19.984  32.821  55.585  1.00  0.00    -0.326 NA
ATOM     38  H   UNL     1      19.710  32.335  56.451  1.00  0.00     0.119 HD
ATOM     39  H   UNL     1      20.781  32.331  55.154  1.00  0.00     0.119 HD
ENDBRANCH  34  37
ENDBRANCH   8  31
TORSDOF 6
ENDMDL
MODEL 2
REMARK VINA RESULT:    -8.004      2.243      2.915
REMARK INTER + INTRA:         -11.946
REMARK INTER:                 -11.903
REMARK INTRA:                  -0.044
REMARK UNBOUND:                -1.368
REMARK SMILES N#Cc1c(N2CCC[C@H](N)C2)n(Cc2ccccc2)c2c(=O)n(Cc3ccnc4ccccc34)cnc12
REMARK SMILES IDX 23 1 35 2 36 3 21 4 20 5 37 6 3 7 4 8 12 9 2 10 1 11 22 12
REMARK SMILES IDX 24 13 25 14 34 15 26 16 33 17 29 18 27 19 32 20 30 21 28 22
REMARK SMILES IDX 31 23 13 24 14 25 15 26 19 27 16 28 18 29 17 30 5 31 11 32
REMARK SMILES IDX 6 33 9 34 7 35 8 36 10 37
REMARK H PARENT 10 38 10 39
ROOT
ATOM      1  N   UNL     1      12.562  36.400  54.464  1.00  0.00    -0.293 N 
ATOM      2  C   UNL     1      11.724  35.337  54.592  1.00  0.00     0.203 A 
ATOM      3  N   UNL     1      12.147  34.126  54.644  1.00  0.00    -0.235 NA
ATOM      4  C   UNL     1      13.910  36.276  54.238  1.00  0.00     0.278 A 
ATOM      5  C   UNL     1      14.417  34.904  54.125  1.00  0.00     0.137 A 
ATOM      6  C   UNL     1      13.557  33.919  54.447  1.00  0.00     0.116 A 
ATOM      7  C   UNL     1      14.307  32.700  54.396  1.00  0.00     0.121 A 
ATOM      8  C   UNL     1      15.563  33.039  54.050  1.00  0.00     0.130 A 
ATOM      9  N   UNL     1      15.617  34.376  53.992  1.00  0.00    -0.316 N 
ATOM     10  C   UNL     1      13.657  31.439  54.672  1.00  0.00     0.105 C 
ATOM     11  N   UNL     1      13.131  30.423  54.845  1.00  0.00    -0.192 NA
ATOM     12  O   UNL     1      14.690  37.226  54.120  1.00  0.00    -0.267 OA
ENDROOT
BRANCH   1  13
ATOM     13  C   UNL     1      12.002  37.756  54.633  1.00  0.00     0.163 C 
BRANCH  13  14
ATOM     14  C   UNL     1      11.093  37.848  55.867  1.00  0.00    -0.017 A 
ATOM     15  C   UNL     1       9.912  38.643  55.803  1.00  0.00     0.005 A 
ATOM     16  C   UNL     1      11.467  37.278  57.107  1.00  0.00     0.026 A 
ATOM     17  C   UNL     1       9.587  39.441  54.676  1.00  0.00     0.011 A 
ATOM     18  C   UNL     1       9.106  38.707  56.954  1.00  0.00     0.070 A 
ATOM     19  C   UNL     1      10.614  37.364  58.219  1.00  0.00     0.112 A 
ATOM     20  C   UNL     1       8.415  40.205  54.674  1.00  0.00     0.001 A 
ATOM     21  C   UNL     1       7.928  39.474  56.959  1.00  0.00     0.029 A 
ATOM     22  N   UNL     1       9.441  38.016  58.088  1.00  0.00    -0.256 NA
ATOM     23  C   UNL     1       7.567  40.192  55.801  1.00  0.00     0.002 A 
ENDBRANCH  13  14
ENDBRANCH   1  13
BRANCH   9  24
ATOM     24  C   UNL     1      16.698  35.067  53.297  1.00  0.00     0.160 C 
BRANCH  24  25
ATOM     25  C   UNL     1      17.511  36.083  54.065  1.00  0.00    -0.028 A 
ATOM     26  C   UNL     1      18.154  37.058  53.288  1.00  0.00     0.005 A 
ATOM     27  C   UNL     1      17.600  36.031  55.464  1.00  0.00     0.005 A 
ATOM     28  C   UNL     1      18.929  38.022  53.946  1.00  0.00     0.000 A 
ATOM     29  C   UNL     1      18.349  37.035  56.096  1.00  0.00     0.000 A 
ATOM     30  C   UNL     1      18.969  38.021  55.345  1.00  0.00     0.000 A 
ENDBRANCH  24  25
ENDBRANCH   9  24
BRANCH   8  31
ATOM     31  N   UNL     1      16.539  32.148  54.049  1.00  0.00    -0.355 N 
ATOM     32  C   UNL     1      16.753  31.367  55.300  1.00  0.00     0.136 C 
ATOM     33  C   UNL     1      17.123  31.590  52.799  1.00  0.00     0.118 C 
ATOM     34  C   UNL     1      18.199  30.925  55.530  1.00  0.00     0.070 C 
ATOM     35  C   UNL     1      18.525  30.974  53.044  1.00  0.00     0.023 C 
ATOM     36  C   UNL     1      18.495  30.029  54.284  1.00  0.00     0.022 C 
BRANCH  34  37
ATOM     37  N   UNL     1      18.255  30.107  56.761  1.00  0.00    -0.326 NA
ATOM     38  H   UNL     1      19.049  30.414  57.341  1.00  0.00     0.119 HD
ATOM     39  H   UNL     1      17.379  30.221  57.289  1.00  0.00     0.119 HD
ENDBRANCH  34  37
ENDBRANCH   8  31
TORSDOF 6
ENDMDL
MODEL 3
REMARK VINA RESULT:    -7.174      2.283      3.244
REMARK INTER + INTRA:         -10.849
REMARK INTER:                 -10.738
REMARK INTRA:                  -0.111
REMARK UNBOUND:                -1.368
REMARK SMILES N#Cc1c(N2CCC[C@H](N)C2)n(Cc2ccccc2)c2c(=O)n(Cc3ccnc4ccccc34)cnc12
REMARK SMILES IDX 23 1 35 2 36 3 21 4 20 5 37 6 3 7 4 8 12 9 2 10 1 11 22 12
REMARK SMILES IDX 24 13 25 14 34 15 26 16 33 17 29 18 27 19 32 20 30 21 28 22
REMARK SMILES IDX 31 23 13 24 14 25 15 26 19 27 16 28 18 29 17 30 5 31 11 32
REMARK SMILES IDX 6 33 9 34 7 35 8 36 10 37
REMARK H PARENT 10 38 10 39
ROOT
ATOM      1  N   UNL     1      12.605  35.840  56.182  1.00  0.00    -0.293 N 
ATOM      2  C   UNL     1      11.900  35.240  55.186  1.00  0.00     0.203 A 
ATOM      3  N   UNL     1      12.352  34.234  54.529  1.00  0.00    -0.235 NA
ATOM      4  C   UNL     1      13.906  35.524  56.482  1.00  0.00     0.278 A 
ATOM      5  C   UNL     1      14.524  34.489  55.646  1.00  0.00     0.137 A 
ATOM      6  C   UNL     1      13.701  33.823  54.812  1.00  0.00     0.116 A 
ATOM      7  C   UNL     1      14.490  32.787  54.214  1.00  0.00     0.121 A 
ATOM      8  C   UNL     1      15.727  32.902  54.732  1.00  0.00     0.130 A 
ATOM      9  N   UNL     1      15.687  33.869  55.660  1.00  0.00    -0.316 N 
ATOM     10  C   UNL     1      13.898  31.899  53.240  1.00  0.00     0.105 C 
ATOM     11  N   UNL     1      13.442  31.216  52.425  1.00  0.00    -0.192 NA
ATOM     12  O   UNL     1      14.566  36.054  57.382  1.00  0.00    -0.267 OA
ENDROOT
BRANCH   1  13
ATOM     13  C   UNL     1      11.917  36.841  57.020  1.00  0.00     0.163 C 
BRANCH  13  14
ATOM     14  C   UNL     1      11.044  37.785  56.180  1.00  0.00    -0.017 A 
ATOM     15  C   UNL     1       9.831  38.287  56.734  1.00  0.00     0.005 A 
ATOM     16  C   UNL     1      11.341  38.058  54.824  1.00  0.00     0.026 A 
ATOM     17  C   UNL     1       9.337  37.873  57.998  1.00  0.00     0.011 A 
ATOM     18  C   UNL     1       9.055  39.145  55.934  1.00  0.00     0.070 A 
ATOM     19  C   UNL     1      10.536  38.934  54.079  1.00  0.00     0.112 A 
ATOM     20  C   UNL     1       8.136  38.398  58.487  1.00  0.00     0.001 A 
ATOM     21  C   UNL     1       7.846  39.675  56.419  1.00  0.00     0.029 A 
ATOM     22  N   UNL     1       9.463  39.494  54.674  1.00  0.00    -0.256 NA
ATOM     23  C   UNL     1       7.410  39.327  57.713  1.00  0.00     0.002 A 
ENDBRANCH  13  14
ENDBRANCH   1  13
BRANCH   9  24
ATOM     24  C   UNL     1      16.903  34.508  56.149  1.00  0.00     0.160 C 
BRANCH  24  25
ATOM     25  C   UNL     1      17.484  35.651  55.352  1.00  0.00    -0.028 A 
ATOM     26  C   UNL     1      18.033  36.699  56.105  1.00  0.00     0.005 A 
ATOM     27  C   UNL     1      17.463  35.640  53.949  1.00  0.00     0.005 A 
ATOM     28  C   UNL     1      18.581  37.791  55.417  1.00  0.00     0.000 A 
ATOM     29  C   UNL     1      18.057  36.727  53.290  1.00  0.00     0.000 A 
ATOM     30  C   UNL     1      18.627  37.758  54.019  1.00  0.00     0.000 A 
ENDBRANCH  24  25
ENDBRANCH   9  24
BRANCH   8  31
ATOM     31  N   UNL     1      16.662  32.003  54.483  1.00  0.00    -0.355 N 
ATOM     32  C   UNL     1      16.746  30.831  55.400  1.00  0.00     0.136 C 
ATOM     33  C   UNL     1      17.318  31.865  53.154  1.00  0.00     0.118 C 
ATOM     34  C   UNL     1      18.150  30.243  55.549  1.00  0.00     0.070 C 
ATOM     35  C   UNL     1      18.670  31.112  53.255  1.00  0.00     0.023 C 
ATOM     36  C   UNL     1      18.505  29.807  54.091  1.00  0.00     0.022 C 
BRANCH  34  37
ATOM     37  N   UNL     1      18.077  29.055  56.425  1.00  0.00    -0.326 NA
ATOM     38  H   UNL     1      17.224  28.520  56.208  1.00  0.00     0.119 HD
ATOM     39  H   UNL     1      18.904  28.461  56.268  1.00  0.00     0.119 HD
ENDBRANCH  34  37
ENDBRANCH   8  31
TORSDOF 6
ENDMDL
MODEL 4
REMARK VINA RESULT:    -7.155      1.778      2.713
REMARK INTER + INTRA:         -10.824
REMARK INTER:                 -11.024
REMARK INTRA:                   0.199
REMARK UNBOUND:                -1.368
REMARK SMILES N#Cc1c(N2CCC[C@H](N)C2)n(Cc2ccccc2)c2c(=O)n(Cc3ccnc4ccccc34)cnc12
REMARK SMILES IDX 23 1 35 2 36 3 21 4 20 5 37 6 3 7 4 8 12 9 2 10 1 11 22 12
REMARK SMILES IDX 24 13 25 14 34 15 26 16 33 17 29 18 27 19 32 20 30 21 28 22
REMARK SMILES IDX 31 23 13 24 14 25 15 26 19 27 16 28 18 29 17 30 5 31 11 32
REMARK SMILES IDX 6 33 9 34 7 35 8 36 10 37
REMARK H PARENT 10 38 10 39
ROOT
ATOM      1  N   UNL     1      12.249  36.579  54.571  1.00  0.00    -0.293 N 
ATOM      2  C   UNL     1      11.548  35.434  54.785  1.00  0.00     0.203 A 
ATOM      3  N   UNL     1      12.109  34.280  54.842  1.00  0.00    -0.235 NA
ATOM      4  C   UNL     1      13.585  36.599  54.259  1.00  0.00     0.278 A 
ATOM      5  C   UNL     1      14.238  35.290  54.150  1.00  0.00     0.137 A 
ATOM      6  C   UNL     1      13.518  34.226  54.557  1.00  0.00     0.116 A 
ATOM      7  C   UNL     1      14.398  33.097  54.489  1.00  0.00     0.121 A 
ATOM      8  C   UNL     1      15.582  33.563  54.050  1.00  0.00     0.130 A 
ATOM      9  N   UNL     1      15.479  34.895  53.951  1.00  0.00    -0.316 N 
ATOM     10  C   UNL     1      13.915  31.782  54.844  1.00  0.00     0.105 C 
ATOM     11  N   UNL     1      13.520  30.721  55.079  1.00  0.00    -0.192 NA
ATOM     12  O   UNL     1      14.243  37.626  54.062  1.00  0.00    -0.267 OA
ENDROOT
BRANCH   1  13
ATOM     13  C   UNL     1      11.550  37.868  54.740  1.00  0.00     0.163 C 
BRANCH  13  14
ATOM     14  C   UNL     1      10.277  37.721  55.585  1.00  0.00    -0.017 A 
ATOM     15  C   UNL     1      10.394  37.531  56.992  1.00  0.00     0.005 A 
ATOM     16  C   UNL     1       8.998  37.630  54.987  1.00  0.00     0.026 A 
ATOM     17  C   UNL     1      11.645  37.369  57.642  1.00  0.00     0.011 A 
ATOM     18  C   UNL     1       9.206  37.396  57.733  1.00  0.00     0.070 A 
ATOM     19  C   UNL     1       7.845  37.508  55.779  1.00  0.00     0.112 A 
ATOM     20  C   UNL     1      11.696  37.181  59.027  1.00  0.00     0.001 A 
ATOM     21  C   UNL     1       9.250  37.204  59.125  1.00  0.00     0.029 A 
ATOM     22  N   UNL     1       7.982  37.459  57.121  1.00  0.00    -0.256 NA
ATOM     23  C   UNL     1      10.500  37.136  59.773  1.00  0.00     0.002 A 
ENDBRANCH  13  14
ENDBRANCH   1  13
BRANCH   9  24
ATOM     24  C   UNL     1      16.427  35.677  53.166  1.00  0.00     0.160 C 
BRANCH  24  25
ATOM     25  C   UNL     1      17.417  36.552  53.900  1.00  0.00    -0.028 A 
ATOM     26  C   UNL     1      18.252  37.335  53.089  1.00  0.00     0.005 A 
ATOM     27  C   UNL     1      17.477  36.561  55.301  1.00  0.00     0.005 A 
ATOM     28  C   UNL     1      19.196  38.160  53.715  1.00  0.00     0.000 A 
ATOM     29  C   UNL     1      18.402  37.429  55.899  1.00  0.00     0.000 A 
ATOM     30  C   UNL     1      19.217  38.229  55.113  1.00  0.00     0.000 A 
ENDBRANCH  24  25
ENDBRANCH   9  24
BRANCH   8  31
ATOM     31  N   UNL     1      16.651  32.787  54.008  1.00  0.00    -0.355 N 
ATOM     32  C   UNL     1      17.699  33.011  55.043  1.00  0.00     0.136 C 
ATOM     33  C   UNL     1      16.674  31.479  53.300  1.00  0.00     0.118 C 
ATOM     34  C   UNL     1      19.119  32.666  54.591  1.00  0.00     0.070 C 
ATOM     35  C   UNL     1      18.121  31.020  52.985  1.00  0.00     0.023 C 
ATOM     36  C   UNL     1      19.020  31.144  54.252  1.00  0.00     0.022 C 
BRANCH  34  37
ATOM     37  N   UNL     1      20.042  32.869  55.728  1.00  0.00    -0.326 NA
ATOM     38  H   UNL     1      20.911  33.307  55.391  1.00  0.00     0.119 HD
ATOM     39  H   UNL     1      19.597  33.480  56.427  1.00  0.00     0.119 HD
ENDBRANCH  34  37
ENDBRANCH   8  31
TORSDOF 6
ENDMDL
MODEL 5
REMARK VINA RESULT:    -6.923      2.836      3.922
REMARK INTER + INTRA:         -10.518
REMARK INTER:                  -9.211
REMARK INTRA:                  -1.306
REMARK UNBOUND:                -1.368
REMARK SMILES N#Cc1c(N2CCC[C@H](N)C2)n(Cc2ccccc2)c2c(=O)n(Cc3ccnc4ccccc34)cnc12
REMARK SMILES IDX 23 1 35 2 36 3 21 4 20 5 37 6 3 7 4 8 12 9 2 10 1 11 22 12
REMARK SMILES IDX 24 13 25 14 34 15 26 16 33 17 29 18 27 19 32 20 30 21 28 22
REMARK SMILES IDX 31 23 13 24 14 25 15 26 19 27 16 28 18 29 17 30 5 31 11 32
REMARK SMILES IDX 6 33 9 34 7 35 8 36 10 37
REMARK H PARENT 10 38 10 39
ROOT
ATOM      1  N   UNL     1      12.370  35.475  59.251  1.00  0.00    -0.293 N 
ATOM      2  C   UNL     1      12.005  34.267  59.757  1.00  0.00     0.203 A 
ATOM      3  N   UNL     1      12.125  33.175  59.093  1.00  0.00    -0.235 NA
ATOM      4  C   UNL     1      12.762  35.660  57.949  1.00  0.00     0.278 A 
ATOM      5  C   UNL     1      12.758  34.463  57.101  1.00  0.00     0.137 A 
ATOM      6  C   UNL     1      12.563  33.286  57.728  1.00  0.00     0.116 A 
ATOM      7  C   UNL     1      12.737  32.270  56.734  1.00  0.00     0.121 A 
ATOM      8  C   UNL     1      13.026  32.906  55.583  1.00  0.00     0.130 A 
ATOM      9  N   UNL     1      13.127  34.213  55.861  1.00  0.00    -0.316 N 
ATOM     10  C   UNL     1      12.570  30.878  57.086  1.00  0.00     0.105 C 
ATOM     11  N   UNL     1      12.389  29.767  57.351  1.00  0.00    -0.192 NA
ATOM     12  O   UNL     1      13.099  36.747  57.467  1.00  0.00    -0.267 OA
ENDROOT
BRANCH   1  13
ATOM     13  C   UNL     1      12.399  36.635  60.163  1.00  0.00     0.163 C 
BRANCH  13  14
ATOM     14  C   UNL     1      11.029  36.890  60.806  1.00  0.00    -0.017 A 
ATOM     15  C   UNL     1       9.961  37.379  59.998  1.00  0.00     0.005 A 
ATOM     16  C   UNL     1      10.836  36.785  62.204  1.00  0.00     0.026 A 
ATOM     17  C   UNL     1      10.134  37.740  58.637  1.00  0.00     0.011 A 
ATOM     18  C   UNL     1       8.721  37.605  60.623  1.00  0.00     0.070 A 
ATOM     19  C   UNL     1       9.571  37.011  62.769  1.00  0.00     0.112 A 
ATOM     20  C   UNL     1       9.049  38.219  57.897  1.00  0.00     0.001 A 
ATOM     21  C   UNL     1       7.627  38.088  59.885  1.00  0.00     0.029 A 
ATOM     22  N   UNL     1       8.547  37.349  61.958  1.00  0.00    -0.256 NA
ATOM     23  C   UNL     1       7.787  38.357  58.510  1.00  0.00     0.002 A 
ENDBRANCH  13  14
ENDBRANCH   1  13
BRANCH   9  24
ATOM     24  C   UNL     1      13.062  35.223  54.812  1.00  0.00     0.160 C 
BRANCH  24  25
ATOM     25  C   UNL     1      11.766  35.977  54.621  1.00  0.00    -0.028 A 
ATOM     26  C   UNL     1      11.882  37.372  54.538  1.00  0.00     0.005 A 
ATOM     27  C   UNL     1      10.541  35.300  54.535  1.00  0.00     0.005 A 
ATOM     28  C   UNL     1      10.711  38.124  54.368  1.00  0.00     0.000 A 
ATOM     29  C   UNL     1       9.392  36.076  54.322  1.00  0.00     0.000 A 
ATOM     30  C   UNL     1       9.492  37.454  54.211  1.00  0.00     0.000 A 
ENDBRANCH  24  25
ENDBRANCH   9  24
BRANCH   8  31
ATOM     31  N   UNL     1      13.377  32.238  54.499  1.00  0.00    -0.355 N 
ATOM     32  C   UNL     1      14.796  31.793  54.400  1.00  0.00     0.136 C 
ATOM     33  C   UNL     1      12.395  31.552  53.618  1.00  0.00     0.118 C 
ATOM     34  C   UNL     1      15.330  31.694  52.970  1.00  0.00     0.070 C 
ATOM     35  C   UNL     1      12.978  31.281  52.206  1.00  0.00     0.023 C 
ATOM     36  C   UNL     1      14.390  30.631  52.317  1.00  0.00     0.022 C 
BRANCH  34  37
ATOM     37  N   UNL     1      16.715  31.180  53.014  1.00  0.00    -0.326 NA
ATOM     38  H   UNL     1      17.365  31.959  53.194  1.00  0.00     0.119 HD
ATOM     39  H   UNL     1      16.799  30.483  53.767  1.00  0.00     0.119 HD
ENDBRANCH  34  37
ENDBRANCH   8  31
TORSDOF 6
ENDMDL
MODEL 6
REMARK VINA RESULT:    -6.702      2.720      9.278
REMARK INTER + INTRA:         -10.225
REMARK INTER:                  -8.387
REMARK INTRA:                  -1.838
REMARK UNBOUND:                -1.368
REMARK SMILES N#Cc1c(N2CCC[C@H](N)C2)n(Cc2ccccc2)c2c(=O)n(Cc3ccnc4ccccc34)cnc12
REMARK SMILES IDX 23 1 35 2 36 3 21 4 20 5 37 6 3 7 4 8 12 9 2 10 1 11 22 12
REMARK SMILES IDX 24 13 25 14 34 15 26 16 33 17 29 18 27 19 32 20 30 21 28 22
REMARK SMILES IDX 31 23 13 24 14 25 15 26 19 27 16 28 18 29 17 30 5 31 11 32
REMARK SMILES IDX 6 33 9 34 7 35 8 36 10 37
REMARK H PARENT 10 38 10 39
ROOT
ATOM      1  N   UNL     1      15.230  32.915  54.714  1.00  0.00    -0.293 N 
ATOM      2  C   UNL     1      15.326  32.191  55.861  1.00  0.00     0.203 A 
ATOM      3  N   UNL     1      14.539  32.369  56.859  1.00  0.00    -0.235 NA
ATOM      4  C   UNL     1      14.388  33.989  54.569  1.00  0.00     0.278 A 
ATOM      5  C   UNL     1      13.582  34.336  55.744  1.00  0.00     0.137 A 
ATOM      6  C   UNL     1      13.604  33.458  56.766  1.00  0.00     0.116 A 
ATOM      7  C   UNL     1      12.650  33.935  57.723  1.00  0.00     0.121 A 
ATOM      8  C   UNL     1      12.122  35.061  57.209  1.00  0.00     0.130 A 
ATOM      9  N   UNL     1      12.631  35.218  55.979  1.00  0.00    -0.316 N 
ATOM     10  C   UNL     1      12.449  33.217  58.962  1.00  0.00     0.105 C 
ATOM     11  N   UNL     1      12.320  32.674  59.975  1.00  0.00    -0.192 NA
ATOM     12  O   UNL     1      14.283  34.661  53.537  1.00  0.00    -0.267 OA
ENDROOT
BRANCH   1  13
ATOM     13  C   UNL     1      16.031  32.491  53.550  1.00  0.00     0.163 C 
BRANCH  13  14
ATOM     14  C   UNL     1      15.697  31.055  53.121  1.00  0.00    -0.017 A 
ATOM     15  C   UNL     1      16.735  30.078  53.094  1.00  0.00     0.005 A 
ATOM     16  C   UNL     1      14.420  30.710  52.620  1.00  0.00     0.026 A 
ATOM     17  C   UNL     1      18.093  30.397  53.350  1.00  0.00     0.011 A 
ATOM     18  C   UNL     1      16.393  28.775  52.691  1.00  0.00     0.070 A 
ATOM     19  C   UNL     1      14.133  29.387  52.244  1.00  0.00     0.112 A 
ATOM     20  C   UNL     1      19.068  29.395  53.303  1.00  0.00     0.001 A 
ATOM     21  C   UNL     1      17.368  27.763  52.640  1.00  0.00     0.029 A 
ATOM     22  N   UNL     1      15.104  28.457  52.352  1.00  0.00    -0.256 NA
ATOM     23  C   UNL     1      18.700  28.071  52.985  1.00  0.00     0.002 A 
ENDBRANCH  13  14
ENDBRANCH   1  13
BRANCH   9  24
ATOM     24  C   UNL     1      12.572  36.501  55.287  1.00  0.00     0.160 C 
BRANCH  24  25
ATOM     25  C   UNL     1      11.217  37.056  54.919  1.00  0.00    -0.028 A 
ATOM     26  C   UNL     1      10.994  38.397  55.268  1.00  0.00     0.005 A 
ATOM     27  C   UNL     1      10.260  36.262  54.271  1.00  0.00     0.005 A 
ATOM     28  C   UNL     1       9.751  38.963  54.958  1.00  0.00     0.000 A 
ATOM     29  C   UNL     1       9.041  36.870  53.936  1.00  0.00     0.000 A 
ATOM     30  C   UNL     1       8.815  38.200  54.249  1.00  0.00     0.000 A 
ENDBRANCH  24  25
ENDBRANCH   9  24
BRANCH   8  31
ATOM     31  N   UNL     1      11.108  35.673  57.793  1.00  0.00    -0.355 N 
ATOM     32  C   UNL     1       9.780  34.997  57.741  1.00  0.00     0.136 C 
ATOM     33  C   UNL     1      11.286  36.725  58.829  1.00  0.00     0.118 C 
ATOM     34  C   UNL     1       8.584  35.950  57.754  1.00  0.00     0.070 C 
ATOM     35  C   UNL     1      10.015  37.600  58.986  1.00  0.00     0.023 C 
ATOM     36  C   UNL     1       8.748  36.701  59.114  1.00  0.00     0.022 C 
BRANCH  34  37
ATOM     37  N   UNL     1       7.340  35.152  57.768  1.00  0.00    -0.326 NA
ATOM     38  H   UNL     1       6.975  35.101  58.729  1.00  0.00     0.119 HD
ATOM     39  H   UNL     1       6.640  35.596  57.157  1.00  0.00     0.119 HD
ENDBRANCH  34  37
ENDBRANCH   8  31
TORSDOF 6
ENDMDL
MODEL 7
REMARK VINA RESULT:    -6.692      1.589      2.242
REMARK INTER + INTRA:         -10.213
REMARK INTER:                  -9.000
REMARK INTRA:                  -1.213
REMARK UNBOUND:                -1.368
REMARK SMILES N#Cc1c(N2CCC[C@H](N)C2)n(Cc2ccccc2)c2c(=O)n(Cc3ccnc4ccccc34)cnc12
REMARK SMILES IDX 23 1 35 2 36 3 21 4 20 5 37 6 3 7 4 8 12 9 2 10 1 11 22 12
REMARK SMILES IDX 24 13 25 14 34 15 26 16 33 17 29 18 27 19 32 20 30 21 28 22
REMARK SMILES IDX 31 23 13 24 14 25 15 26 19 27 16 28 18 29 17 30 5 31 11 32
REMARK SMILES IDX 6 33 9 34 7 35 8 36 10 37
REMARK H PARENT 10 38 10 39
ROOT
ATOM      1  N   UNL     1      13.112  35.228  57.898  1.00  0.00    -0.293 N 
ATOM      2  C   UNL     1      12.545  34.138  58.479  1.00  0.00     0.203 A 
ATOM      3  N   UNL     1      12.838  32.938  58.129  1.00  0.00    -0.235 NA
ATOM      4  C   UNL     1      13.934  35.157  56.801  1.00  0.00     0.278 A 
ATOM      5  C   UNL     1      14.168  33.814  56.261  1.00  0.00     0.137 A 
ATOM      6  C   UNL     1      13.721  32.783  57.005  1.00  0.00     0.116 A 
ATOM      7  C   UNL     1      14.181  31.592  56.355  1.00  0.00     0.121 A 
ATOM      8  C   UNL     1      14.873  31.991  55.271  1.00  0.00     0.130 A 
ATOM      9  N   UNL     1      14.929  33.329  55.300  1.00  0.00    -0.316 N 
ATOM     10  C   UNL     1      13.844  30.296  56.899  1.00  0.00     0.105 C 
ATOM     11  N   UNL     1      13.536  29.257  57.302  1.00  0.00    -0.192 NA
ATOM     12  O   UNL     1      14.461  36.134  56.257  1.00  0.00    -0.267 OA
ENDROOT
BRANCH   1  13
ATOM     13  C   UNL     1      12.878  36.549  58.513  1.00  0.00     0.163 C 
BRANCH  13  14
ATOM     14  C   UNL     1      11.462  37.069  58.225  1.00  0.00    -0.017 A 
ATOM     15  C   UNL     1      10.562  37.274  59.311  1.00  0.00     0.005 A 
ATOM     16  C   UNL     1      10.982  37.219  56.903  1.00  0.00     0.026 A 
ATOM     17  C   UNL     1      10.882  36.920  60.648  1.00  0.00     0.011 A 
ATOM     18  C   UNL     1       9.272  37.746  59.010  1.00  0.00     0.070 A 
ATOM     19  C   UNL     1       9.688  37.707  56.663  1.00  0.00     0.112 A 
ATOM     20  C   UNL     1       9.955  37.140  61.671  1.00  0.00     0.001 A 
ATOM     21  C   UNL     1       8.335  37.967  60.033  1.00  0.00     0.029 A 
ATOM     22  N   UNL     1       8.904  38.013  57.717  1.00  0.00    -0.256 NA
ATOM     23  C   UNL     1       8.695  37.698  61.369  1.00  0.00     0.002 A 
ENDBRANCH  13  14
ENDBRANCH   1  13
BRANCH   9  24
ATOM     24  C   UNL     1      15.269  34.104  54.112  1.00  0.00     0.160 C 
BRANCH  24  25
ATOM     25  C   UNL     1      16.597  34.824  54.081  1.00  0.00    -0.028 A 
ATOM     26  C   UNL     1      16.573  36.118  53.540  1.00  0.00     0.005 A 
ATOM     27  C   UNL     1      17.762  34.215  54.568  1.00  0.00     0.005 A 
ATOM     28  C   UNL     1      17.778  36.831  53.478  1.00  0.00     0.000 A 
ATOM     29  C   UNL     1      18.944  34.970  54.532  1.00  0.00     0.000 A 
ATOM     30  C   UNL     1      18.933  36.260  54.025  1.00  0.00     0.000 A 
ENDBRANCH  24  25
ENDBRANCH   9  24
BRANCH   8  31
ATOM     31  N   UNL     1      15.545  31.127  54.530  1.00  0.00    -0.355 N 
ATOM     32  C   UNL     1      16.900  30.729  55.005  1.00  0.00     0.136 C 
ATOM     33  C   UNL     1      14.891  30.236  53.535  1.00  0.00     0.118 C 
ATOM     34  C   UNL     1      17.877  30.358  53.889  1.00  0.00     0.070 C 
ATOM     35  C   UNL     1      15.904  29.702  52.488  1.00  0.00     0.023 C 
ATOM     36  C   UNL     1      17.176  29.145  53.196  1.00  0.00     0.022 C 
BRANCH  34  37
ATOM     37  N   UNL     1      19.151  29.919  54.499  1.00  0.00    -0.326 NA
ATOM     38  H   UNL     1      19.238  28.897  54.415  1.00  0.00     0.119 HD
ATOM     39  H   UNL     1      19.938  30.372  54.013  1.00  0.00     0.119 HD
ENDBRANCH  34  37
ENDBRANCH   8  31
TORSDOF 6
ENDMDL
MODEL 8
REMARK VINA RESULT:    -6.613      3.038      8.358
REMARK INTER + INTRA:         -10.107
REMARK INTER:                  -8.846
REMARK INTRA:                  -1.262
REMARK UNBOUND:                -1.368
REMARK SMILES N#Cc1c(N2CCC[C@H](N)C2)n(Cc2ccccc2)c2c(=O)n(Cc3ccnc4ccccc34)cnc12
REMARK SMILES IDX 23 1 35 2 36 3 21 4 20 5 37 6 3 7 4 8 12 9 2 10 1 11 22 12
REMARK SMILES IDX 24 13 25 14 34 15 26 16 33 17 29 18 27 19 32 20 30 21 28 22
REMARK SMILES IDX 31 23 13 24 14 25 15 26 19 27 16 28 18 29 17 30 5 31 11 32
REMARK SMILES IDX 6 33 9 34 7 35 8 36 10 37
REMARK H PARENT 10 38 10 39
ROOT
ATOM      1  N   UNL     1      14.619  34.219  54.260  1.00  0.00    -0.293 N 
ATOM      2  C   UNL     1      14.267  32.915  54.108  1.00  0.00     0.203 A 
ATOM      3  N   UNL     1      13.061  32.501  54.259  1.00  0.00    -0.235 NA
ATOM      4  C   UNL     1      13.758  35.183  54.723  1.00  0.00     0.278 A 
ATOM      5  C   UNL     1      12.408  34.726  55.067  1.00  0.00     0.137 A 
ATOM      6  C   UNL     1      12.094  33.464  54.712  1.00  0.00     0.116 A 
ATOM      7  C   UNL     1      10.705  33.296  55.021  1.00  0.00     0.121 A 
ATOM      8  C   UNL     1      10.284  34.465  55.536  1.00  0.00     0.130 A 
ATOM      9  N   UNL     1      11.304  35.330  55.458  1.00  0.00    -0.316 N 
ATOM     10  C   UNL     1      10.059  32.026  54.776  1.00  0.00     0.105 C 
ATOM     11  N   UNL     1       9.551  30.998  54.628  1.00  0.00    -0.192 NA
ATOM     12  O   UNL     1      14.054  36.374  54.868  1.00  0.00    -0.267 OA
ENDROOT
BRANCH   1  13
ATOM     13  C   UNL     1      15.977  34.630  53.854  1.00  0.00     0.163 C 
BRANCH  13  14
ATOM     14  C   UNL     1      16.722  35.341  54.992  1.00  0.00    -0.017 A 
ATOM     15  C   UNL     1      17.602  36.418  54.680  1.00  0.00     0.005 A 
ATOM     16  C   UNL     1      16.665  34.868  56.324  1.00  0.00     0.026 A 
ATOM     17  C   UNL     1      17.903  36.800  53.347  1.00  0.00     0.011 A 
ATOM     18  C   UNL     1      18.272  37.043  55.748  1.00  0.00     0.070 A 
ATOM     19  C   UNL     1      17.345  35.542  57.351  1.00  0.00     0.112 A 
ATOM     20  C   UNL     1      18.780  37.862  53.104  1.00  0.00     0.001 A 
ATOM     21  C   UNL     1      19.156  38.110  55.511  1.00  0.00     0.029 A 
ATOM     22  N   UNL     1      18.069  36.637  57.041  1.00  0.00    -0.256 NA
ATOM     23  C   UNL     1      19.377  38.541  54.187  1.00  0.00     0.002 A 
ENDBRANCH  13  14
ENDBRANCH   1  13
BRANCH   9  24
ATOM     24  C   UNL     1      11.327  36.556  56.247  1.00  0.00     0.160 C 
BRANCH  24  25
ATOM     25  C   UNL     1      10.441  37.703  55.818  1.00  0.00    -0.028 A 
ATOM     26  C   UNL     1      10.717  38.244  54.554  1.00  0.00     0.005 A 
ATOM     27  C   UNL     1       9.415  38.175  56.650  1.00  0.00     0.005 A 
ATOM     28  C   UNL     1       9.932  39.315  54.108  1.00  0.00     0.000 A 
ATOM     29  C   UNL     1       8.619  39.220  56.157  1.00  0.00     0.000 A 
ATOM     30  C   UNL     1       8.862  39.749  54.900  1.00  0.00     0.000 A 
ENDBRANCH  24  25
ENDBRANCH   9  24
BRANCH   8  31
ATOM     31  N   UNL     1       9.006  34.679  55.798  1.00  0.00    -0.355 N 
ATOM     32  C   UNL     1       8.089  34.846  54.636  1.00  0.00     0.136 C 
ATOM     33  C   UNL     1       8.382  34.342  57.106  1.00  0.00     0.118 C 
ATOM     34  C   UNL     1       6.882  35.746  54.907  1.00  0.00     0.070 C 
ATOM     35  C   UNL     1       7.056  35.116  57.328  1.00  0.00     0.023 C 
ATOM     36  C   UNL     1       6.145  35.006  56.068  1.00  0.00     0.022 C 
BRANCH  34  37
ATOM     37  N   UNL     1       6.026  35.769  53.702  1.00  0.00    -0.326 NA
ATOM     38  H   UNL     1       6.240  34.951  53.114  1.00  0.00     0.119 HD
ATOM     39  H   UNL     1       5.036  35.741  53.984  1.00  0.00     0.119 HD
ENDBRANCH  34  37
ENDBRANCH   8  31
TORSDOF 6
ENDMDL
MODEL 9
REMARK VINA RESULT:    -6.490      1.649      2.388
REMARK INTER + INTRA:          -9.945
REMARK INTER:                  -8.053
REMARK INTRA:                  -1.892
REMARK UNBOUND:                -1.368
REMARK SMILES N#Cc1c(N2CCC[C@H](N)C2)n(Cc2ccccc2)c2c(=O)n(Cc3ccnc4ccccc34)cnc12
REMARK SMILES IDX 23 1 35 2 36 3 21 4 20 5 37 6 3 7 4 8 12 9 2 10 1 11 22 12
REMARK SMILES IDX 24 13 25 14 34 15 26 16 33 17 29 18 27 19 32 20 30 21 28 22
REMARK SMILES IDX 31 23 13 24 14 25 15 26 19 27 16 28 18 29 17 30 5 31 11 32
REMARK SMILES IDX 6 33 9 34 7 35 8 36 10 37
REMARK H PARENT 10 38 10 39
ROOT
ATOM      1  N   UNL     1      12.018  35.388  59.494  1.00  0.00    -0.293 N 
ATOM      2  C   UNL     1      11.425  34.183  59.707  1.00  0.00     0.203 A 
ATOM      3  N   UNL     1      11.708  33.141  59.014  1.00  0.00    -0.235 NA
ATOM      4  C   UNL     1      12.861  35.638  58.440  1.00  0.00     0.278 A 
ATOM      5  C   UNL     1      13.088  34.517  57.521  1.00  0.00     0.137 A 
ATOM      6  C   UNL     1      12.612  33.318  57.909  1.00  0.00     0.116 A 
ATOM      7  C   UNL     1      13.069  32.372  56.936  1.00  0.00     0.121 A 
ATOM      8  C   UNL     1      13.788  33.067  56.035  1.00  0.00     0.130 A 
ATOM      9  N   UNL     1      13.862  34.333  56.470  1.00  0.00    -0.316 N 
ATOM     10  C   UNL     1      12.704  30.978  57.055  1.00  0.00     0.105 C 
ATOM     11  N   UNL     1      12.374  29.872  57.119  1.00  0.00    -0.192 NA
ATOM     12  O   UNL     1      13.412  36.723  58.227  1.00  0.00    -0.267 OA
ENDROOT
BRANCH   1  13
ATOM     13  C   UNL     1      11.789  36.464  60.477  1.00  0.00     0.163 C 
BRANCH  13  14
ATOM     14  C   UNL     1      10.409  37.115  60.300  1.00  0.00    -0.017 A 
ATOM     15  C   UNL     1       9.519  37.171  61.410  1.00  0.00     0.005 A 
ATOM     16  C   UNL     1       9.947  37.535  59.031  1.00  0.00     0.026 A 
ATOM     17  C   UNL     1       9.809  36.557  62.657  1.00  0.00     0.011 A 
ATOM     18  C   UNL     1       8.262  37.770  61.209  1.00  0.00     0.070 A 
ATOM     19  C   UNL     1       8.687  38.139  58.893  1.00  0.00     0.112 A 
ATOM     20  C   UNL     1       8.892  36.641  63.709  1.00  0.00     0.001 A 
ATOM     21  C   UNL     1       7.335  37.856  62.262  1.00  0.00     0.029 A 
ATOM     22  N   UNL     1       7.918  38.293  59.991  1.00  0.00    -0.256 NA
ATOM     23  C   UNL     1       7.671  37.323  63.523  1.00  0.00     0.002 A 
ENDBRANCH  13  14
ENDBRANCH   1  13
BRANCH   9  24
ATOM     24  C   UNL     1      14.236  35.425  55.579  1.00  0.00     0.160 C 
BRANCH  24  25
ATOM     25  C   UNL     1      15.675  35.522  55.128  1.00  0.00    -0.028 A 
ATOM     26  C   UNL     1      15.874  35.562  53.740  1.00  0.00     0.005 A 
ATOM     27  C   UNL     1      16.724  35.566  56.057  1.00  0.00     0.005 A 
ATOM     28  C   UNL     1      17.189  35.644  53.263  1.00  0.00     0.000 A 
ATOM     29  C   UNL     1      18.026  35.691  55.550  1.00  0.00     0.000 A 
ATOM     30  C   UNL     1      18.239  35.759  54.182  1.00  0.00     0.000 A 
ENDBRANCH  24  25
ENDBRANCH   9  24
BRANCH   8  31
ATOM     31  N   UNL     1      14.464  32.457  55.077  1.00  0.00    -0.355 N 
ATOM     32  C   UNL     1      15.753  31.813  55.454  1.00  0.00     0.136 C 
ATOM     33  C   UNL     1      13.838  32.013  53.803  1.00  0.00     0.118 C 
ATOM     34  C   UNL     1      16.790  31.767  54.331  1.00  0.00     0.070 C 
ATOM     35  C   UNL     1      14.894  31.789  52.690  1.00  0.00     0.023 C 
ATOM     36  C   UNL     1      16.075  30.924  53.227  1.00  0.00     0.022 C 
BRANCH  34  37
ATOM     37  N   UNL     1      17.986  31.047  54.817  1.00  0.00    -0.326 NA
ATOM     38  H   UNL     1      17.747  30.059  54.984  1.00  0.00     0.119 HD
ATOM     39  H   UNL     1      18.733  31.105  54.110  1.00  0.00     0.119 HD
ENDBRANCH  34  37
ENDBRANCH   8  31
TORSDOF 6
ENDMDL
