REMARK SMILES N#Cc1c(N2CCC[C@H](N)C2)n(Cc2ccccc2)c2c(=O)n(Cc3ccnc4ccccc34)cnc12
REMARK SMILES IDX 23 1 35 2 36 3 21 4 20 5 37 6 3 7 4 8 12 9 2 10 1 11 22 12
REMARK SMILES IDX 24 13 25 14 34 15 26 16 33 17 29 18 27 19 32 20 30 21 28 22
REMARK SMILES IDX 31 23 13 24 14 25 15 26 19 27 16 28 18 29 17 30 5 31 11 32
REMARK SMILES IDX 6 33 9 34 7 35 8 36 10 37
REMARK H PARENT 10 38 10 39
ROOT
ATOM      1  N   UNL     1      12.240  36.601  54.109  1.00  0.00    -0.293 N 
ATOM      2  C   UNL     1      11.508  35.468  54.278  1.00  0.00     0.203 A 
ATOM      3  N   UNL     1      12.047  34.312  54.425  1.00  0.00    -0.235 NA
ATOM      4  C   UNL     1      13.602  36.601  53.939  1.00  0.00     0.278 A 
ATOM      5  C   UNL     1      14.248  35.284  53.935  1.00  0.00     0.137 A 
ATOM      6  C   UNL     1      13.477  34.238  54.292  1.00  0.00     0.116 A 
ATOM      7  C   UNL     1      14.347  33.101  54.348  1.00  0.00     0.121 A 
ATOM      8  C   UNL     1      15.576  33.544  54.024  1.00  0.00     0.130 A 
ATOM      9  N   UNL     1      15.499  34.874  53.879  1.00  0.00    -0.316 N 
ATOM     10  C   UNL     1      13.815  31.800  54.685  1.00  0.00     0.105 C 
ATOM     11  N   UNL     1      13.386  30.749  54.906  1.00  0.00    -0.192 NA
ATOM     12  O   UNL     1      14.288  37.617  53.785  1.00  0.00    -0.267 OA
ENDROOT
BRANCH   1  13
ATOM     13  C   UNL     1      11.542  37.900  54.168  1.00  0.00     0.163 C 
BRANCH  13  14
ATOM     14  C   UNL     1      10.757  38.067  55.477  1.00  0.00    -0.017 A 
ATOM     15  C   UNL     1       9.669  38.986  55.523  1.00  0.00     0.005 A 
ATOM     16  C   UNL     1      11.171  37.437  56.674  1.00  0.00     0.026 A 
ATOM     17  C   UNL     1       9.338  39.836  54.436  1.00  0.00     0.011 A 
ATOM     18  C   UNL     1       8.976  39.116  56.740  1.00  0.00     0.070 A 
ATOM     19  C   UNL     1      10.431  37.594  57.857  1.00  0.00     0.112 A 
ATOM     20  C   UNL     1       8.261  40.722  54.543  1.00  0.00     0.001 A 
ATOM     21  C   UNL     1       7.894  40.006  56.855  1.00  0.00     0.029 A 
ATOM     22  N   UNL     1       9.329  38.372  57.835  1.00  0.00    -0.256 NA
ATOM     23  C   UNL     1       7.516  40.780  55.739  1.00  0.00     0.002 A 
ENDBRANCH  13  14
ENDBRANCH   1  13
BRANCH   9  24
ATOM     24  C   UNL     1      16.533  35.626  53.178  1.00  0.00     0.160 C 
BRANCH  24  25
ATOM     25  C   UNL     1      17.498  36.453  53.995  1.00  0.00    -0.028 A 
ATOM     26  C   UNL     1      18.558  37.031  53.281  1.00  0.00     0.005 A 
ATOM     27  C   UNL     1      17.322  36.616  55.377  1.00  0.00     0.005 A 
ATOM     28  C   UNL     1      19.489  37.803  53.989  1.00  0.00     0.000 A 
ATOM     29  C   UNL     1      18.246  37.429  56.050  1.00  0.00     0.000 A 
ATOM     30  C   UNL     1      19.284  38.029  55.355  1.00  0.00     0.000 A 
ENDBRANCH  24  25
ENDBRANCH   9  24
BRANCH   8  31
ATOM     31  N   UNL     1      16.635  32.759  54.116  1.00  0.00    -0.355 N 
ATOM     32  C   UNL     1      17.698  33.156  55.082  1.00  0.00     0.136 C 
ATOM     33  C   UNL     1      16.633  31.342  53.663  1.00  0.00     0.118 C 
ATOM     34  C   UNL     1      19.108  32.713  54.688  1.00  0.00     0.070 C 
ATOM     35  C   UNL     1      18.071  30.812  53.424  1.00  0.00     0.023 C 
ATOM     36  C   UNL     1      18.986  31.156  54.638  1.00  0.00     0.022 C 
BRANCH  34  37
ATOM     37  N   UNL     1      20.047  33.109  55.759  1.00  0.00    -0.326 NA
ATOM     38  H   UNL     1      19.617  32.928  56.677  1.00  0.00     0.119 HD
ATOM     39  H   UNL     1      20.916  32.563  55.673  1.00  0.00     0.119 HD
ENDBRANCH  34  37
ENDBRANCH   8  31
TORSDOF 6
