MODEL 1
REMARK VINA RESULT:    -7.331      0.000      0.000
REMARK INTER + INTRA:         -10.976
REMARK INTER:                 -10.331
REMARK INTRA:                  -0.645
REMARK UNBOUND:                -0.645
REMARK SMILES CO[C@H]1OC(OC(=O)c2cc(O)c(O)c(O)c2)[C@H](O)[C@@H](O)[C@@H]1O
REMARK SMILES IDX 7 1 8 2 6 3 5 4 3 5 22 6 4 7 20 8 18 9 2 10 1 11 23 12 21 14
REMARK SMILES IDX 19 16 9 18 17 19 10 20 15 21 11 22 13 23 16 24 12 26 14 28
REMARK H PARENT 23 13 21 15 19 17 16 25 12 27 14 29
ROOT
ATOM      1  C   UNL     1      22.684  17.898 -16.243  1.00  0.00     0.340 C 
ATOM      2  O   UNL     1      22.502  17.790 -17.445  1.00  0.00    -0.246 OA
ENDROOT
BRANCH   1   3
ATOM      3  O   UNL     1      23.823  18.293 -15.628  1.00  0.00    -0.429 OA
BRANCH   3   4
ATOM      4  C   UNL     1      25.000  17.534 -15.949  1.00  0.00     0.345 C 
ATOM      5  C   UNL     1      26.437  19.275 -15.180  1.00  0.00     0.285 C 
ATOM      6  C   UNL     1      26.897  18.447 -13.967  1.00  0.00     0.202 C 
ATOM      7  O   UNL     1      26.081  18.426 -16.267  1.00  0.00    -0.308 OA
ATOM      8  C   UNL     1      25.804  17.464 -13.567  1.00  0.00     0.183 C 
ATOM      9  C   UNL     1      25.389  16.617 -14.770  1.00  0.00     0.215 C 
BRANCH   5  10
ATOM     10  O   UNL     1      27.543  20.119 -15.536  1.00  0.00    -0.353 OA
ATOM     11  C   UNL     1      27.218  20.988 -16.614  1.00  0.00     0.198 C 
ENDBRANCH   5  10
BRANCH   6  12
ATOM     12  O   UNL     1      27.204  19.285 -12.841  1.00  0.00    -0.385 OA
ATOM     13  H   UNL     1      28.064  18.959 -12.507  1.00  0.00     0.211 HD
ENDBRANCH   6  12
BRANCH   8  14
ATOM     14  O   UNL     1      26.276  16.594 -12.522  1.00  0.00    -0.387 OA
ATOM     15  H   UNL     1      26.541  17.194 -11.795  1.00  0.00     0.211 HD
ENDBRANCH   8  14
BRANCH   9  16
ATOM     16  O   UNL     1      24.324  15.743 -14.379  1.00  0.00    -0.384 OA
ATOM     17  H   UNL     1      24.628  14.846 -14.620  1.00  0.00     0.211 HD
ENDBRANCH   9  16
ENDBRANCH   3   4
ENDBRANCH   1   3
BRANCH   1  18
ATOM     18  C   UNL     1      21.627  17.605 -15.239  1.00  0.00     0.067 A 
ATOM     19  C   UNL     1      21.809  18.100 -13.934  1.00  0.00     0.066 A 
ATOM     20  C   UNL     1      20.481  16.858 -15.554  1.00  0.00     0.066 A 
ATOM     21  C   UNL     1      20.847  17.847 -12.963  1.00  0.00     0.162 A 
ATOM     22  C   UNL     1      19.534  16.617 -14.567  1.00  0.00     0.162 A 
ATOM     23  C   UNL     1      19.713  17.108 -13.280  1.00  0.00     0.200 A 
BRANCH  21  24
ATOM     24  O   UNL     1      20.970  18.306 -11.681  1.00  0.00    -0.504 OA
ATOM     25  H   UNL     1      21.830  18.010 -11.330  1.00  0.00     0.293 HD
ENDBRANCH  21  24
BRANCH  22  26
ATOM     26  O   UNL     1      18.421  15.890 -14.872  1.00  0.00    -0.504 OA
ATOM     27  H   UNL     1      18.170  15.455 -14.031  1.00  0.00     0.293 HD
ENDBRANCH  22  26
BRANCH  23  28
ATOM     28  O   UNL     1      18.760  16.852 -12.332  1.00  0.00    -0.502 OA
ATOM     29  H   UNL     1      19.098  16.066 -11.855  1.00  0.00     0.293 HD
ENDBRANCH  23  28
ENDBRANCH   1  18
TORSDOF 10
ENDMDL
MODEL 2
REMARK VINA RESULT:    -7.291      0.069      1.727
REMARK INTER + INTRA:         -10.919
REMARK INTER:                 -10.357
REMARK INTRA:                  -0.562
REMARK UNBOUND:                -0.645
REMARK SMILES CO[C@H]1OC(OC(=O)c2cc(O)c(O)c(O)c2)[C@H](O)[C@@H](O)[C@@H]1O
REMARK SMILES IDX 7 1 8 2 6 3 5 4 3 5 22 6 4 7 20 8 18 9 2 10 1 11 23 12 21 14
REMARK SMILES IDX 19 16 9 18 17 19 10 20 15 21 11 22 13 23 16 24 12 26 14 28
REMARK H PARENT 23 13 21 15 19 17 16 25 12 27 14 29
ROOT
ATOM      1  C   UNL     1      22.675  17.809 -16.259  1.00  0.00     0.340 C 
ATOM      2  O   UNL     1      22.461  17.589 -17.440  1.00  0.00    -0.246 OA
ENDROOT
BRANCH   1   3
ATOM      3  O   UNL     1      23.821  18.283 -15.718  1.00  0.00    -0.429 OA
BRANCH   3   4
ATOM      4  C   UNL     1      25.008  17.529 -16.011  1.00  0.00     0.345 C 
ATOM      5  C   UNL     1      26.420  19.285 -15.233  1.00  0.00     0.285 C 
ATOM      6  C   UNL     1      26.864  18.472 -14.004  1.00  0.00     0.202 C 
ATOM      7  O   UNL     1      26.089  18.425 -16.318  1.00  0.00    -0.308 OA
ATOM      8  C   UNL     1      25.770  17.486 -13.614  1.00  0.00     0.183 C 
ATOM      9  C   UNL     1      25.382  16.625 -14.816  1.00  0.00     0.215 C 
BRANCH   5  10
ATOM     10  O   UNL     1      27.528  20.133 -15.577  1.00  0.00    -0.353 OA
ATOM     11  C   UNL     1      27.213  20.998 -16.662  1.00  0.00     0.198 C 
ENDBRANCH   5  10
BRANCH   6  12
ATOM     12  O   UNL     1      27.146  19.323 -12.881  1.00  0.00    -0.385 OA
ATOM     13  H   UNL     1      27.001  20.234 -13.208  1.00  0.00     0.211 HD
ENDBRANCH   6  12
BRANCH   8  14
ATOM     14  O   UNL     1      26.229  16.629 -12.553  1.00  0.00    -0.387 OA
ATOM     15  H   UNL     1      27.184  16.827 -12.465  1.00  0.00     0.211 HD
ENDBRANCH   8  14
BRANCH   9  16
ATOM     16  O   UNL     1      24.315  15.749 -14.435  1.00  0.00    -0.384 OA
ATOM     17  H   UNL     1      23.853  16.210 -13.706  1.00  0.00     0.211 HD
ENDBRANCH   9  16
ENDBRANCH   3   4
ENDBRANCH   1   3
BRANCH   1  18
ATOM     18  C   UNL     1      21.656  17.583 -15.200  1.00  0.00     0.067 A 
ATOM     19  C   UNL     1      20.503  16.855 -15.546  1.00  0.00     0.066 A 
ATOM     20  C   UNL     1      21.812  18.074 -13.894  1.00  0.00     0.066 A 
ATOM     21  C   UNL     1      19.523  16.622 -14.587  1.00  0.00     0.162 A 
ATOM     22  C   UNL     1      20.819  17.830 -12.953  1.00  0.00     0.162 A 
ATOM     23  C   UNL     1      19.683  17.110 -13.295  1.00  0.00     0.200 A 
BRANCH  21  24
ATOM     24  O   UNL     1      18.385  15.919 -14.866  1.00  0.00    -0.504 OA
ATOM     25  H   UNL     1      17.628  16.532 -14.829  1.00  0.00     0.293 HD
ENDBRANCH  21  24
BRANCH  22  26
ATOM     26  O   UNL     1      20.970  18.309 -11.685  1.00  0.00    -0.504 OA
ATOM     27  H   UNL     1      21.756  17.841 -11.334  1.00  0.00     0.293 HD
ENDBRANCH  22  26
BRANCH  23  28
ATOM     28  O   UNL     1      18.724  16.888 -12.343  1.00  0.00    -0.502 OA
ATOM     29  H   UNL     1      18.862  17.606 -11.690  1.00  0.00     0.293 HD
ENDBRANCH  23  28
ENDBRANCH   1  18
TORSDOF 10
ENDMDL
MODEL 3
REMARK VINA RESULT:    -6.906      1.585      3.181
REMARK INTER + INTRA:         -10.378
REMARK INTER:                  -9.688
REMARK INTRA:                  -0.689
REMARK UNBOUND:                -0.645
REMARK SMILES CO[C@H]1OC(OC(=O)c2cc(O)c(O)c(O)c2)[C@H](O)[C@@H](O)[C@@H]1O
REMARK SMILES IDX 7 1 8 2 6 3 5 4 3 5 22 6 4 7 20 8 18 9 2 10 1 11 23 12 21 14
REMARK SMILES IDX 19 16 9 18 17 19 10 20 15 21 11 22 13 23 16 24 12 26 14 28
REMARK H PARENT 23 13 21 15 19 17 16 25 12 27 14 29
ROOT
ATOM      1  C   UNL     1      24.391  17.060 -14.907  1.00  0.00     0.340 C 
ATOM      2  O   UNL     1      25.017  16.048 -15.178  1.00  0.00    -0.246 OA
ENDROOT
BRANCH   1   3
ATOM      3  O   UNL     1      24.805  18.338 -15.072  1.00  0.00    -0.429 OA
BRANCH   3   4
ATOM      4  C   UNL     1      26.178  18.597 -14.738  1.00  0.00     0.345 C 
ATOM      5  C   UNL     1      26.489  19.937 -16.685  1.00  0.00     0.285 C 
ATOM      6  C   UNL     1      26.612  21.228 -15.856  1.00  0.00     0.202 C 
ATOM      7  O   UNL     1      26.938  18.811 -15.939  1.00  0.00    -0.308 OA
ATOM      8  C   UNL     1      25.835  21.082 -14.553  1.00  0.00     0.183 C 
ATOM      9  C   UNL     1      26.285  19.825 -13.809  1.00  0.00     0.215 C 
BRANCH   5  10
ATOM     10  O   UNL     1      27.302  20.129 -17.853  1.00  0.00    -0.353 OA
ATOM     11  C   UNL     1      28.566  19.489 -17.727  1.00  0.00     0.198 C 
ENDBRANCH   5  10
BRANCH   6  12
ATOM     12  O   UNL     1      26.109  22.367 -16.573  1.00  0.00    -0.385 OA
ATOM     13  H   UNL     1      25.185  22.473 -16.266  1.00  0.00     0.211 HD
ENDBRANCH   6  12
BRANCH   8  14
ATOM     14  O   UNL     1      26.056  22.228 -13.713  1.00  0.00    -0.387 OA
ATOM     15  H   UNL     1      26.666  22.802 -14.222  1.00  0.00     0.211 HD
ENDBRANCH   8  14
BRANCH   9  16
ATOM     16  O   UNL     1      25.500  19.684 -12.619  1.00  0.00    -0.384 OA
ATOM     17  H   UNL     1      26.108  19.299 -11.956  1.00  0.00     0.211 HD
ENDBRANCH   9  16
ENDBRANCH   3   4
ENDBRANCH   1   3
BRANCH   1  18
ATOM     18  C   UNL     1      23.017  17.030 -14.338  1.00  0.00     0.067 A 
ATOM     19  C   UNL     1      22.059  16.227 -14.984  1.00  0.00     0.066 A 
ATOM     20  C   UNL     1      22.661  17.771 -13.200  1.00  0.00     0.066 A 
ATOM     21  C   UNL     1      20.762  16.170 -14.487  1.00  0.00     0.162 A 
ATOM     22  C   UNL     1      21.359  17.700 -12.723  1.00  0.00     0.162 A 
ATOM     23  C   UNL     1      20.415  16.906 -13.359  1.00  0.00     0.200 A 
BRANCH  21  24
ATOM     24  O   UNL     1      19.792  15.406 -15.071  1.00  0.00    -0.504 OA
ATOM     25  H   UNL     1      19.033  15.980 -15.283  1.00  0.00     0.293 HD
ENDBRANCH  21  24
BRANCH  22  26
ATOM     26  O   UNL     1      21.012  18.422 -11.618  1.00  0.00    -0.504 OA
ATOM     27  H   UNL     1      20.583  19.228 -11.973  1.00  0.00     0.293 HD
ENDBRANCH  22  26
BRANCH  23  28
ATOM     28  O   UNL     1      19.141  16.859 -12.862  1.00  0.00    -0.502 OA
ATOM     29  H   UNL     1      18.602  17.331 -13.531  1.00  0.00     0.293 HD
ENDBRANCH  23  28
ENDBRANCH   1  18
TORSDOF 10
ENDMDL
MODEL 4
REMARK VINA RESULT:    -6.879      3.080      5.945
REMARK INTER + INTRA:         -10.339
REMARK INTER:                  -9.858
REMARK INTRA:                  -0.481
REMARK UNBOUND:                -0.645
REMARK SMILES CO[C@H]1OC(OC(=O)c2cc(O)c(O)c(O)c2)[C@H](O)[C@@H](O)[C@@H]1O
REMARK SMILES IDX 7 1 8 2 6 3 5 4 3 5 22 6 4 7 20 8 18 9 2 10 1 11 23 12 21 14
REMARK SMILES IDX 19 16 9 18 17 19 10 20 15 21 11 22 13 23 16 24 12 26 14 28
REMARK H PARENT 23 13 21 15 19 17 16 25 12 27 14 29
ROOT
ATOM      1  C   UNL     1      22.205  16.364 -16.529  1.00  0.00     0.340 C 
ATOM      2  O   UNL     1      22.351  16.872 -17.629  1.00  0.00    -0.246 OA
ENDROOT
BRANCH   1   3
ATOM      3  O   UNL     1      22.383  16.964 -15.329  1.00  0.00    -0.429 OA
BRANCH   3   4
ATOM      4  C   UNL     1      21.768  18.253 -15.178  1.00  0.00     0.345 C 
ATOM      5  C   UNL     1      19.633  17.279 -14.755  1.00  0.00     0.285 C 
ATOM      6  C   UNL     1      19.651  17.721 -13.281  1.00  0.00     0.202 C 
ATOM      7  O   UNL     1      20.385  18.178 -15.563  1.00  0.00    -0.308 OA
ATOM      8  C   UNL     1      21.090  17.833 -12.793  1.00  0.00     0.183 C 
ATOM      9  C   UNL     1      21.894  18.744 -13.720  1.00  0.00     0.215 C 
BRANCH   5  10
ATOM     10  O   UNL     1      18.253  17.269 -15.156  1.00  0.00    -0.353 OA
ATOM     11  C   UNL     1      17.873  16.014 -15.705  1.00  0.00     0.198 C 
ENDBRANCH   5  10
BRANCH   6  12
ATOM     12  O   UNL     1      18.945  16.793 -12.442  1.00  0.00    -0.385 OA
ATOM     13  H   UNL     1      19.468  15.966 -12.481  1.00  0.00     0.211 HD
ENDBRANCH   6  12
BRANCH   8  14
ATOM     14  O   UNL     1      21.121  18.375 -11.461  1.00  0.00    -0.387 OA
ATOM     15  H   UNL     1      20.723  17.681 -10.896  1.00  0.00     0.211 HD
ENDBRANCH   8  14
BRANCH   9  16
ATOM     16  O   UNL     1      23.252  18.784 -13.270  1.00  0.00    -0.384 OA
ATOM     17  H   UNL     1      23.203  19.063 -12.333  1.00  0.00     0.211 HD
ENDBRANCH   9  16
ENDBRANCH   3   4
ENDBRANCH   1   3
BRANCH   1  18
ATOM     18  C   UNL     1      21.784  14.950 -16.344  1.00  0.00     0.067 A 
ATOM     19  C   UNL     1      20.809  14.438 -17.221  1.00  0.00     0.066 A 
ATOM     20  C   UNL     1      22.321  14.134 -15.336  1.00  0.00     0.066 A 
ATOM     21  C   UNL     1      20.385  13.121 -17.083  1.00  0.00     0.162 A 
ATOM     22  C   UNL     1      21.880  12.822 -15.216  1.00  0.00     0.162 A 
ATOM     23  C   UNL     1      20.920  12.317 -16.082  1.00  0.00     0.200 A 
BRANCH  21  24
ATOM     24  O   UNL     1      19.444  12.570 -17.906  1.00  0.00    -0.504 OA
ATOM     25  H   UNL     1      19.295  11.647 -17.630  1.00  0.00     0.293 HD
ENDBRANCH  21  24
BRANCH  22  26
ATOM     26  O   UNL     1      22.400  12.030 -14.235  1.00  0.00    -0.504 OA
ATOM     27  H   UNL     1      22.053  11.135 -14.428  1.00  0.00     0.293 HD
ENDBRANCH  22  26
BRANCH  23  28
ATOM     28  O   UNL     1      20.509  11.020 -15.936  1.00  0.00    -0.502 OA
ATOM     29  H   UNL     1      20.099  10.994 -15.047  1.00  0.00     0.293 HD
ENDBRANCH  23  28
ENDBRANCH   1  18
TORSDOF 10
ENDMDL
MODEL 5
REMARK VINA RESULT:    -6.853      1.597      6.505
REMARK INTER + INTRA:         -10.303
REMARK INTER:                 -10.088
REMARK INTRA:                  -0.215
REMARK UNBOUND:                -0.645
REMARK SMILES CO[C@H]1OC(OC(=O)c2cc(O)c(O)c(O)c2)[C@H](O)[C@@H](O)[C@@H]1O
REMARK SMILES IDX 7 1 8 2 6 3 5 4 3 5 22 6 4 7 20 8 18 9 2 10 1 11 23 12 21 14
REMARK SMILES IDX 19 16 9 18 17 19 10 20 15 21 11 22 13 23 16 24 12 26 14 28
REMARK H PARENT 23 13 21 15 19 17 16 25 12 27 14 29
ROOT
ATOM      1  C   UNL     1      23.438  16.441 -14.600  1.00  0.00     0.340 C 
ATOM      2  O   UNL     1      23.606  15.598 -15.465  1.00  0.00    -0.246 OA
ENDROOT
BRANCH   1   3
ATOM      3  O   UNL     1      22.311  16.651 -13.880  1.00  0.00    -0.429 OA
BRANCH   3   4
ATOM      4  C   UNL     1      21.575  17.841 -14.207  1.00  0.00     0.345 C 
ATOM      5  C   UNL     1      20.142  16.650 -15.694  1.00  0.00     0.285 C 
ATOM      6  C   UNL     1      18.930  16.813 -14.760  1.00  0.00     0.202 C 
ATOM      7  O   UNL     1      21.050  17.736 -15.541  1.00  0.00    -0.308 OA
ATOM      8  C   UNL     1      19.402  16.939 -13.317  1.00  0.00     0.183 C 
ATOM      9  C   UNL     1      20.431  18.063 -13.195  1.00  0.00     0.215 C 
BRANCH   5  10
ATOM     10  O   UNL     1      19.618  16.611 -17.031  1.00  0.00    -0.353 OA
ATOM     11  C   UNL     1      20.252  15.609 -17.817  1.00  0.00     0.198 C 
ENDBRANCH   5  10
BRANCH   6  12
ATOM     12  O   UNL     1      18.032  15.696 -14.860  1.00  0.00    -0.385 OA
ATOM     13  H   UNL     1      17.177  16.023 -14.513  1.00  0.00     0.211 HD
ENDBRANCH   6  12
BRANCH   8  14
ATOM     14  O   UNL     1      18.288  17.227 -12.453  1.00  0.00    -0.387 OA
ATOM     15  H   UNL     1      18.651  17.819 -11.762  1.00  0.00     0.211 HD
ENDBRANCH   8  14
BRANCH   9  16
ATOM     16  O   UNL     1      20.898  18.121 -11.842  1.00  0.00    -0.384 OA
ATOM     17  H   UNL     1      20.273  18.717 -11.381  1.00  0.00     0.211 HD
ENDBRANCH   9  16
ENDBRANCH   3   4
ENDBRANCH   1   3
BRANCH   1  18
ATOM     18  C   UNL     1      24.500  17.398 -14.190  1.00  0.00     0.067 A 
ATOM     19  C   UNL     1      25.492  16.935 -13.306  1.00  0.00     0.066 A 
ATOM     20  C   UNL     1      24.532  18.724 -14.649  1.00  0.00     0.066 A 
ATOM     21  C   UNL     1      26.503  17.796 -12.895  1.00  0.00     0.162 A 
ATOM     22  C   UNL     1      25.550  19.567 -14.224  1.00  0.00     0.162 A 
ATOM     23  C   UNL     1      26.531  19.108 -13.354  1.00  0.00     0.200 A 
BRANCH  21  24
ATOM     24  O   UNL     1      27.494  17.400 -12.041  1.00  0.00    -0.504 OA
ATOM     25  H   UNL     1      27.416  17.917 -11.218  1.00  0.00     0.293 HD
ENDBRANCH  21  24
BRANCH  22  26
ATOM     26  O   UNL     1      25.580  20.856 -14.669  1.00  0.00    -0.504 OA
ATOM     27  H   UNL     1      24.639  21.099 -14.791  1.00  0.00     0.293 HD
ENDBRANCH  22  26
BRANCH  23  28
ATOM     28  O   UNL     1      27.520  19.966 -12.955  1.00  0.00    -0.502 OA
ATOM     29  H   UNL     1      27.349  20.105 -12.000  1.00  0.00     0.293 HD
ENDBRANCH  23  28
ENDBRANCH   1  18
TORSDOF 10
ENDMDL
MODEL 6
REMARK VINA RESULT:    -6.839      4.629      8.380
REMARK INTER + INTRA:         -10.283
REMARK INTER:                  -9.524
REMARK INTRA:                  -0.759
REMARK UNBOUND:                -0.645
REMARK SMILES CO[C@H]1OC(OC(=O)c2cc(O)c(O)c(O)c2)[C@H](O)[C@@H](O)[C@@H]1O
REMARK SMILES IDX 7 1 8 2 6 3 5 4 3 5 22 6 4 7 20 8 18 9 2 10 1 11 23 12 21 14
REMARK SMILES IDX 19 16 9 18 17 19 10 20 15 21 11 22 13 23 16 24 12 26 14 28
REMARK H PARENT 23 13 21 15 19 17 16 25 12 27 14 29
ROOT
ATOM      1  C   UNL     1      19.536  15.392 -17.771  1.00  0.00     0.340 C 
ATOM      2  O   UNL     1      19.727  15.467 -18.973  1.00  0.00    -0.246 OA
ENDROOT
BRANCH   1   3
ATOM      3  O   UNL     1      18.595  16.052 -17.056  1.00  0.00    -0.429 OA
BRANCH   3   4
ATOM      4  C   UNL     1      17.261  16.003 -17.586  1.00  0.00     0.345 C 
ATOM      5  C   UNL     1      16.585  14.390 -15.965  1.00  0.00     0.285 C 
ATOM      6  C   UNL     1      15.676  15.401 -15.243  1.00  0.00     0.202 C 
ATOM      7  O   UNL     1      16.693  14.704 -17.349  1.00  0.00    -0.308 OA
ATOM      8  C   UNL     1      16.208  16.814 -15.451  1.00  0.00     0.183 C 
ATOM      9  C   UNL     1      16.384  17.098 -16.942  1.00  0.00     0.215 C 
BRANCH   5  10
ATOM     10  O   UNL     1      15.979  13.101 -15.782  1.00  0.00    -0.353 OA
ATOM     11  C   UNL     1      16.035  12.319 -16.969  1.00  0.00     0.198 C 
ENDBRANCH   5  10
BRANCH   6  12
ATOM     12  O   UNL     1      15.604  15.134 -13.833  1.00  0.00    -0.385 OA
ATOM     13  H   UNL     1      16.473  15.407 -13.477  1.00  0.00     0.211 HD
ENDBRANCH   6  12
BRANCH   8  14
ATOM     14  O   UNL     1      15.292  17.775 -14.896  1.00  0.00    -0.387 OA
ATOM     15  H   UNL     1      15.589  17.902 -13.971  1.00  0.00     0.211 HD
ENDBRANCH   8  14
BRANCH   9  16
ATOM     16  O   UNL     1      16.937  18.409 -17.103  1.00  0.00    -0.384 OA
ATOM     17  H   UNL     1      16.835  18.614 -18.054  1.00  0.00     0.211 HD
ENDBRANCH   9  16
ENDBRANCH   3   4
ENDBRANCH   1   3
BRANCH   1  18
ATOM     18  C   UNL     1      20.344  14.516 -16.880  1.00  0.00     0.067 A 
ATOM     19  C   UNL     1      21.338  15.124 -16.091  1.00  0.00     0.066 A 
ATOM     20  C   UNL     1      20.145  13.128 -16.814  1.00  0.00     0.066 A 
ATOM     21  C   UNL     1      22.118  14.343 -15.245  1.00  0.00     0.162 A 
ATOM     22  C   UNL     1      20.937  12.368 -15.963  1.00  0.00     0.162 A 
ATOM     23  C   UNL     1      21.917  12.969 -15.183  1.00  0.00     0.200 A 
BRANCH  21  24
ATOM     24  O   UNL     1      23.095  14.880 -14.455  1.00  0.00    -0.504 OA
ATOM     25  H   UNL     1      23.535  15.593 -14.952  1.00  0.00     0.293 HD
ENDBRANCH  21  24
BRANCH  22  26
ATOM     26  O   UNL     1      20.746  11.019 -15.900  1.00  0.00    -0.504 OA
ATOM     27  H   UNL     1      20.433  10.770 -16.794  1.00  0.00     0.293 HD
ENDBRANCH  22  26
BRANCH  23  28
ATOM     28  O   UNL     1      22.679  12.190 -14.356  1.00  0.00    -0.502 OA
ATOM     29  H   UNL     1      22.037  11.578 -13.939  1.00  0.00     0.293 HD
ENDBRANCH  23  28
ENDBRANCH   1  18
TORSDOF 10
ENDMDL
MODEL 7
REMARK VINA RESULT:    -6.810      2.389      6.507
REMARK INTER + INTRA:         -10.242
REMARK INTER:                  -9.614
REMARK INTRA:                  -0.628
REMARK UNBOUND:                -0.645
REMARK SMILES CO[C@H]1OC(OC(=O)c2cc(O)c(O)c(O)c2)[C@H](O)[C@@H](O)[C@@H]1O
REMARK SMILES IDX 7 1 8 2 6 3 5 4 3 5 22 6 4 7 20 8 18 9 2 10 1 11 23 12 21 14
REMARK SMILES IDX 19 16 9 18 17 19 10 20 15 21 11 22 13 23 16 24 12 26 14 28
REMARK H PARENT 23 13 21 15 19 17 16 25 12 27 14 29
ROOT
ATOM      1  C   UNL     1      25.115  18.056 -17.095  1.00  0.00     0.340 C 
ATOM      2  O   UNL     1      24.450  17.315 -17.801  1.00  0.00    -0.246 OA
ENDROOT
BRANCH   1   3
ATOM      3  O   UNL     1      25.190  18.038 -15.744  1.00  0.00    -0.429 OA
BRANCH   3   4
ATOM      4  C   UNL     1      24.512  16.949 -15.097  1.00  0.00     0.345 C 
ATOM      5  C   UNL     1      25.651  17.349 -13.041  1.00  0.00     0.285 C 
ATOM      6  C   UNL     1      24.367  17.843 -12.350  1.00  0.00     0.202 C 
ATOM      7  O   UNL     1      25.346  16.404 -14.061  1.00  0.00    -0.308 OA
ATOM      8  C   UNL     1      23.418  18.434 -13.386  1.00  0.00     0.183 C 
ATOM      9  C   UNL     1      23.167  17.426 -14.508  1.00  0.00     0.215 C 
BRANCH   5  10
ATOM     10  O   UNL     1      26.454  16.746 -12.014  1.00  0.00    -0.353 OA
ATOM     11  C   UNL     1      27.817  17.143 -12.109  1.00  0.00     0.198 C 
ENDBRANCH   5  10
BRANCH   6  12
ATOM     12  O   UNL     1      24.651  18.841 -11.357  1.00  0.00    -0.385 OA
ATOM     13  H   UNL     1      24.654  18.360 -10.505  1.00  0.00     0.211 HD
ENDBRANCH   6  12
BRANCH   8  14
ATOM     14  O   UNL     1      22.162  18.773 -12.771  1.00  0.00    -0.387 OA
ATOM     15  H   UNL     1      21.740  19.404 -13.390  1.00  0.00     0.211 HD
ENDBRANCH   8  14
BRANCH   9  16
ATOM     16  O   UNL     1      22.318  18.028 -15.492  1.00  0.00    -0.384 OA
ATOM     17  H   UNL     1      22.417  17.470 -16.290  1.00  0.00     0.211 HD
ENDBRANCH   9  16
ENDBRANCH   3   4
ENDBRANCH   1   3
BRANCH   1  18
ATOM     18  C   UNL     1      25.983  19.130 -17.648  1.00  0.00     0.067 A 
ATOM     19  C   UNL     1      25.372  20.128 -18.429  1.00  0.00     0.066 A 
ATOM     20  C   UNL     1      27.368  19.166 -17.418  1.00  0.00     0.066 A 
ATOM     21  C   UNL     1      26.147  21.150 -18.967  1.00  0.00     0.162 A 
ATOM     22  C   UNL     1      28.121  20.195 -17.967  1.00  0.00     0.162 A 
ATOM     23  C   UNL     1      27.518  21.181 -18.736  1.00  0.00     0.200 A 
BRANCH  21  24
ATOM     24  O   UNL     1      25.607  22.147 -19.730  1.00  0.00    -0.504 OA
ATOM     25  H   UNL     1      24.640  22.027 -19.753  1.00  0.00     0.293 HD
ENDBRANCH  21  24
BRANCH  22  26
ATOM     26  O   UNL     1      29.467  20.229 -17.746  1.00  0.00    -0.504 OA
ATOM     27  H   UNL     1      29.703  21.178 -17.793  1.00  0.00     0.293 HD
ENDBRANCH  22  26
BRANCH  23  28
ATOM     28  O   UNL     1      28.290  22.181 -19.262  1.00  0.00    -0.502 OA
ATOM     29  H   UNL     1      27.747  22.989 -19.152  1.00  0.00     0.293 HD
ENDBRANCH  23  28
ENDBRANCH   1  18
TORSDOF 10
ENDMDL
MODEL 8
REMARK VINA RESULT:    -6.682      2.550      7.297
REMARK INTER + INTRA:         -10.061
REMARK INTER:                  -9.485
REMARK INTRA:                  -0.576
REMARK UNBOUND:                -0.645
REMARK SMILES CO[C@H]1OC(OC(=O)c2cc(O)c(O)c(O)c2)[C@H](O)[C@@H](O)[C@@H]1O
REMARK SMILES IDX 7 1 8 2 6 3 5 4 3 5 22 6 4 7 20 8 18 9 2 10 1 11 23 12 21 14
REMARK SMILES IDX 19 16 9 18 17 19 10 20 15 21 11 22 13 23 16 24 12 26 14 28
REMARK H PARENT 23 13 21 15 19 17 16 25 12 27 14 29
ROOT
ATOM      1  C   UNL     1      21.122  16.612 -15.403  1.00  0.00     0.340 C 
ATOM      2  O   UNL     1      21.429  16.217 -16.515  1.00  0.00    -0.246 OA
ENDROOT
BRANCH   1   3
ATOM      3  O   UNL     1      19.869  16.766 -14.914  1.00  0.00    -0.429 OA
BRANCH   3   4
ATOM      4  C   UNL     1      18.985  17.574 -15.708  1.00  0.00     0.345 C 
ATOM      5  C   UNL     1      17.346  15.844 -15.798  1.00  0.00     0.285 C 
ATOM      6  C   UNL     1      16.374  16.630 -14.900  1.00  0.00     0.202 C 
ATOM      7  O   UNL     1      18.176  16.730 -16.543  1.00  0.00    -0.308 OA
ATOM      8  C   UNL     1      17.157  17.561 -13.981  1.00  0.00     0.183 C 
ATOM      9  C   UNL     1      18.093  18.448 -14.801  1.00  0.00     0.215 C 
BRANCH   5  10
ATOM     10  O   UNL     1      16.533  15.051 -16.676  1.00  0.00    -0.353 OA
ATOM     11  C   UNL     1      17.132  13.792 -16.957  1.00  0.00     0.198 C 
ENDBRANCH   5  10
BRANCH   6  12
ATOM     12  O   UNL     1      15.570  15.751 -14.096  1.00  0.00    -0.385 OA
ATOM     13  H   UNL     1      14.787  15.546 -14.647  1.00  0.00     0.211 HD
ENDBRANCH   6  12
BRANCH   8  14
ATOM     14  O   UNL     1      16.253  18.396 -13.235  1.00  0.00    -0.387 OA
ATOM     15  H   UNL     1      16.510  19.313 -13.464  1.00  0.00     0.211 HD
ENDBRANCH   8  14
BRANCH   9  16
ATOM     16  O   UNL     1      18.854  19.270 -13.910  1.00  0.00    -0.384 OA
ATOM     17  H   UNL     1      18.272  19.416 -13.137  1.00  0.00     0.211 HD
ENDBRANCH   9  16
ENDBRANCH   3   4
ENDBRANCH   1   3
BRANCH   1  18
ATOM     18  C   UNL     1      22.129  16.990 -14.375  1.00  0.00     0.067 A 
ATOM     19  C   UNL     1      21.684  17.730 -13.264  1.00  0.00     0.066 A 
ATOM     20  C   UNL     1      23.483  16.639 -14.489  1.00  0.00     0.066 A 
ATOM     21  C   UNL     1      22.592  18.106 -12.281  1.00  0.00     0.162 A 
ATOM     22  C   UNL     1      24.372  17.027 -13.496  1.00  0.00     0.162 A 
ATOM     23  C   UNL     1      23.932  17.755 -12.398  1.00  0.00     0.200 A 
BRANCH  21  24
ATOM     24  O   UNL     1      22.216  18.822 -11.179  1.00  0.00    -0.504 OA
ATOM     25  H   UNL     1      21.915  19.702 -11.471  1.00  0.00     0.293 HD
ENDBRANCH  21  24
BRANCH  22  26
ATOM     26  O   UNL     1      25.689  16.688 -13.607  1.00  0.00    -0.504 OA
ATOM     27  H   UNL     1      25.832  16.562 -14.568  1.00  0.00     0.293 HD
ENDBRANCH  22  26
BRANCH  23  28
ATOM     28  O   UNL     1      24.835  18.122 -11.437  1.00  0.00    -0.502 OA
ATOM     29  H   UNL     1      25.700  18.101 -11.897  1.00  0.00     0.293 HD
ENDBRANCH  23  28
ENDBRANCH   1  18
TORSDOF 10
ENDMDL
MODEL 9
REMARK VINA RESULT:    -6.649      2.602      7.521
REMARK INTER + INTRA:         -10.016
REMARK INTER:                  -9.344
REMARK INTRA:                  -0.671
REMARK UNBOUND:                -0.645
REMARK SMILES CO[C@H]1OC(OC(=O)c2cc(O)c(O)c(O)c2)[C@H](O)[C@@H](O)[C@@H]1O
REMARK SMILES IDX 7 1 8 2 6 3 5 4 3 5 22 6 4 7 20 8 18 9 2 10 1 11 23 12 21 14
REMARK SMILES IDX 19 16 9 18 17 19 10 20 15 21 11 22 13 23 16 24 12 26 14 28
REMARK H PARENT 23 13 21 15 19 17 16 25 12 27 14 29
ROOT
ATOM      1  C   UNL     1      26.721  21.157 -16.466  1.00  0.00     0.340 C 
ATOM      2  O   UNL     1      26.153  22.231 -16.349  1.00  0.00    -0.246 OA
ENDROOT
BRANCH   1   3
ATOM      3  O   UNL     1      26.647  20.103 -15.620  1.00  0.00    -0.429 OA
BRANCH   3   4
ATOM      4  C   UNL     1      25.696  20.229 -14.550  1.00  0.00     0.345 C 
ATOM      5  C   UNL     1      24.551  18.247 -15.221  1.00  0.00     0.285 C 
ATOM      6  C   UNL     1      25.026  17.475 -13.978  1.00  0.00     0.202 C 
ATOM      7  O   UNL     1      24.444  19.640 -14.942  1.00  0.00    -0.308 OA
ATOM      8  C   UNL     1      26.353  18.045 -13.490  1.00  0.00     0.183 C 
ATOM      9  C   UNL     1      26.231  19.552 -13.270  1.00  0.00     0.215 C 
BRANCH   5  10
ATOM     10  O   UNL     1      23.270  17.700 -15.570  1.00  0.00    -0.353 OA
ATOM     11  C   UNL     1      22.261  18.087 -14.645  1.00  0.00     0.198 C 
ENDBRANCH   5  10
BRANCH   6  12
ATOM     12  O   UNL     1      25.196  16.076 -14.258  1.00  0.00    -0.385 OA
ATOM     13  H   UNL     1      24.837  15.951 -15.160  1.00  0.00     0.211 HD
ENDBRANCH   6  12
BRANCH   8  14
ATOM     14  O   UNL     1      26.737  17.420 -12.253  1.00  0.00    -0.387 OA
ATOM     15  H   UNL     1      27.156  18.133 -11.729  1.00  0.00     0.211 HD
ENDBRANCH   8  14
BRANCH   9  16
ATOM     16  O   UNL     1      27.505  20.068 -12.868  1.00  0.00    -0.384 OA
ATOM     17  H   UNL     1      27.308  20.918 -12.425  1.00  0.00     0.211 HD
ENDBRANCH   9  16
ENDBRANCH   3   4
ENDBRANCH   1   3
BRANCH   1  18
ATOM     18  C   UNL     1      27.610  20.837 -17.615  1.00  0.00     0.067 A 
ATOM     19  C   UNL     1      28.690  19.966 -17.383  1.00  0.00     0.066 A 
ATOM     20  C   UNL     1      27.403  21.376 -18.895  1.00  0.00     0.066 A 
ATOM     21  C   UNL     1      29.548  19.641 -18.429  1.00  0.00     0.162 A 
ATOM     22  C   UNL     1      28.273  21.038 -19.923  1.00  0.00     0.162 A 
ATOM     23  C   UNL     1      29.338  20.177 -19.694  1.00  0.00     0.200 A 
BRANCH  21  24
ATOM     24  O   UNL     1      30.611  18.799 -18.262  1.00  0.00    -0.504 OA
ATOM     25  H   UNL     1      30.463  18.273 -17.455  1.00  0.00     0.293 HD
ENDBRANCH  21  24
BRANCH  22  26
ATOM     26  O   UNL     1      28.074  21.563 -21.166  1.00  0.00    -0.504 OA
ATOM     27  H   UNL     1      27.376  21.003 -21.564  1.00  0.00     0.293 HD
ENDBRANCH  22  26
BRANCH  23  28
ATOM     28  O   UNL     1      30.177  19.866 -20.730  1.00  0.00    -0.502 OA
ATOM     29  H   UNL     1      30.840  20.587 -20.730  1.00  0.00     0.293 HD
ENDBRANCH  23  28
ENDBRANCH   1  18
TORSDOF 10
ENDMDL
