MODEL 1
REMARK VINA RESULT:    -7.370      0.000      0.000
REMARK INTER + INTRA:         -11.021
REMARK INTER:                 -10.386
REMARK INTRA:                  -0.635
REMARK UNBOUND:                -0.635
REMARK SMILES CO[C@H]1OC(OC(=O)c2cc(O)c(O)c(O)c2)[C@H](O)[C@@H](O)[C@@H]1O
REMARK SMILES IDX 7 1 8 2 6 3 5 4 3 5 22 6 4 7 20 8 18 9 2 10 1 11 23 12 21 14
REMARK SMILES IDX 19 16 9 18 17 19 10 20 15 21 11 22 13 23 16 24 12 26 14 28
REMARK H PARENT 23 13 21 15 19 17 16 25 12 27 14 29
ROOT
ATOM      1  C   UNL     1      22.682  17.883 -16.255  1.00  0.00     0.340 C 
ATOM      2  O   UNL     1      22.501  17.760 -17.456  1.00  0.00    -0.246 OA
ENDROOT
BRANCH   1   3
ATOM      3  O   UNL     1      23.818  18.292 -15.644  1.00  0.00    -0.429 OA
BRANCH   3   4
ATOM      4  C   UNL     1      24.998  17.531 -15.948  1.00  0.00     0.345 C 
ATOM      5  C   UNL     1      26.427  19.286 -15.197  1.00  0.00     0.285 C 
ATOM      6  C   UNL     1      26.883  18.477 -13.970  1.00  0.00     0.202 C 
ATOM      7  O   UNL     1      26.078  18.421 -16.273  1.00  0.00    -0.308 OA
ATOM      8  C   UNL     1      25.789  17.498 -13.561  1.00  0.00     0.183 C 
ATOM      9  C   UNL     1      25.382  16.633 -14.753  1.00  0.00     0.215 C 
BRANCH   5  10
ATOM     10  O   UNL     1      27.533  20.127 -15.559  1.00  0.00    -0.353 OA
ATOM     11  C   UNL     1      27.190  21.028 -16.606  1.00  0.00     0.198 C 
ENDBRANCH   5  10
BRANCH   6  12
ATOM     12  O   UNL     1      27.182  19.332 -12.855  1.00  0.00    -0.385 OA
ATOM     13  H   UNL     1      27.901  18.878 -12.370  1.00  0.00     0.211 HD
ENDBRANCH   6  12
BRANCH   8  14
ATOM     14  O   UNL     1      26.258  16.645 -12.501  1.00  0.00    -0.387 OA
ATOM     15  H   UNL     1      27.234  16.731 -12.521  1.00  0.00     0.211 HD
ENDBRANCH   8  14
BRANCH   9  16
ATOM     16  O   UNL     1      24.317  15.763 -14.355  1.00  0.00    -0.384 OA
ATOM     17  H   UNL     1      23.616  15.893 -15.025  1.00  0.00     0.211 HD
ENDBRANCH   9  16
ENDBRANCH   3   4
ENDBRANCH   1   3
BRANCH   1  18
ATOM     18  C   UNL     1      21.626  17.595 -15.248  1.00  0.00     0.067 A 
ATOM     19  C   UNL     1      21.811  18.094 -13.945  1.00  0.00     0.066 A 
ATOM     20  C   UNL     1      20.477  16.850 -15.559  1.00  0.00     0.066 A 
ATOM     21  C   UNL     1      20.849  17.846 -12.972  1.00  0.00     0.162 A 
ATOM     22  C   UNL     1      19.531  16.615 -14.570  1.00  0.00     0.162 A 
ATOM     23  C   UNL     1      19.714  17.108 -13.285  1.00  0.00     0.200 A 
BRANCH  21  24
ATOM     24  O   UNL     1      20.975  18.308 -11.692  1.00  0.00    -0.504 OA
ATOM     25  H   UNL     1      21.813  17.970 -11.324  1.00  0.00     0.293 HD
ENDBRANCH  21  24
BRANCH  22  26
ATOM     26  O   UNL     1      18.416  15.889 -14.872  1.00  0.00    -0.504 OA
ATOM     27  H   UNL     1      17.688  16.344 -14.399  1.00  0.00     0.293 HD
ENDBRANCH  22  26
BRANCH  23  28
ATOM     28  O   UNL     1      18.762  16.857 -12.335  1.00  0.00    -0.502 OA
ATOM     29  H   UNL     1      18.006  16.491 -12.840  1.00  0.00     0.293 HD
ENDBRANCH  23  28
ENDBRANCH   1  18
TORSDOF 10
ENDMDL
MODEL 2
REMARK VINA RESULT:    -6.956      1.536      2.615
REMARK INTER + INTRA:         -10.438
REMARK INTER:                  -9.725
REMARK INTRA:                  -0.713
REMARK UNBOUND:                -0.635
REMARK SMILES CO[C@H]1OC(OC(=O)c2cc(O)c(O)c(O)c2)[C@H](O)[C@@H](O)[C@@H]1O
REMARK SMILES IDX 7 1 8 2 6 3 5 4 3 5 22 6 4 7 20 8 18 9 2 10 1 11 23 12 21 14
REMARK SMILES IDX 19 16 9 18 17 19 10 20 15 21 11 22 13 23 16 24 12 26 14 28
REMARK H PARENT 23 13 21 15 19 17 16 25 12 27 14 29
ROOT
ATOM      1  C   UNL     1      24.355  17.018 -14.846  1.00  0.00     0.340 C 
ATOM      2  O   UNL     1      25.004  16.012 -15.083  1.00  0.00    -0.246 OA
ENDROOT
BRANCH   1   3
ATOM      3  O   UNL     1      24.761  18.300 -14.998  1.00  0.00    -0.429 OA
BRANCH   3   4
ATOM      4  C   UNL     1      26.144  18.554 -14.706  1.00  0.00     0.345 C 
ATOM      5  C   UNL     1      26.360  20.016 -16.577  1.00  0.00     0.285 C 
ATOM      6  C   UNL     1      26.506  21.254 -15.675  1.00  0.00     0.202 C 
ATOM      7  O   UNL     1      26.851  18.851 -15.922  1.00  0.00    -0.308 OA
ATOM      8  C   UNL     1      25.786  21.019 -14.353  1.00  0.00     0.183 C 
ATOM      9  C   UNL     1      26.279  19.724 -13.707  1.00  0.00     0.215 C 
BRANCH   5  10
ATOM     10  O   UNL     1      27.122  20.289 -17.764  1.00  0.00    -0.353 OA
ATOM     11  C   UNL     1      28.521  20.200 -17.525  1.00  0.00     0.198 C 
ENDBRANCH   5  10
BRANCH   6  12
ATOM     12  O   UNL     1      25.962  22.429 -16.298  1.00  0.00    -0.385 OA
ATOM     13  H   UNL     1      26.603  22.667 -16.998  1.00  0.00     0.211 HD
ENDBRANCH   6  12
BRANCH   8  14
ATOM     14  O   UNL     1      26.031  22.114 -13.453  1.00  0.00    -0.387 OA
ATOM     15  H   UNL     1      26.837  22.550 -13.799  1.00  0.00     0.211 HD
ENDBRANCH   8  14
BRANCH   9  16
ATOM     16  O   UNL     1      25.546  19.500 -12.497  1.00  0.00    -0.384 OA
ATOM     17  H   UNL     1      24.901  20.233 -12.449  1.00  0.00     0.211 HD
ENDBRANCH   9  16
ENDBRANCH   3   4
ENDBRANCH   1   3
BRANCH   1  18
ATOM     18  C   UNL     1      22.957  16.974 -14.340  1.00  0.00     0.067 A 
ATOM     19  C   UNL     1      22.653  17.725 -13.190  1.00  0.00     0.066 A 
ATOM     20  C   UNL     1      21.957  16.213 -14.967  1.00  0.00     0.066 A 
ATOM     21  C   UNL     1      21.359  17.711 -12.682  1.00  0.00     0.162 A 
ATOM     22  C   UNL     1      20.672  16.214 -14.440  1.00  0.00     0.162 A 
ATOM     23  C   UNL     1      20.372  16.957 -13.306  1.00  0.00     0.200 A 
BRANCH  21  24
ATOM     24  O   UNL     1      21.007  18.423 -11.570  1.00  0.00    -0.504 OA
ATOM     25  H   UNL     1      21.468  19.282 -11.596  1.00  0.00     0.293 HD
ENDBRANCH  21  24
BRANCH  22  26
ATOM     26  O   UNL     1      19.701  15.473 -15.048  1.00  0.00    -0.504 OA
ATOM     27  H   UNL     1      18.862  15.796 -14.660  1.00  0.00     0.293 HD
ENDBRANCH  22  26
BRANCH  23  28
ATOM     28  O   UNL     1      19.096  16.934 -12.814  1.00  0.00    -0.502 OA
ATOM     29  H   UNL     1      18.528  16.953 -13.613  1.00  0.00     0.293 HD
ENDBRANCH  23  28
ENDBRANCH   1  18
TORSDOF 10
ENDMDL
MODEL 3
REMARK VINA RESULT:    -6.955      1.643      3.218
REMARK INTER + INTRA:         -10.436
REMARK INTER:                  -9.780
REMARK INTRA:                  -0.656
REMARK UNBOUND:                -0.635
REMARK SMILES CO[C@H]1OC(OC(=O)c2cc(O)c(O)c(O)c2)[C@H](O)[C@@H](O)[C@@H]1O
REMARK SMILES IDX 7 1 8 2 6 3 5 4 3 5 22 6 4 7 20 8 18 9 2 10 1 11 23 12 21 14
REMARK SMILES IDX 19 16 9 18 17 19 10 20 15 21 11 22 13 23 16 24 12 26 14 28
REMARK H PARENT 23 13 21 15 19 17 16 25 12 27 14 29
ROOT
ATOM      1  C   UNL     1      24.561  17.077 -14.861  1.00  0.00     0.340 C 
ATOM      2  O   UNL     1      25.225  16.076 -15.078  1.00  0.00    -0.246 OA
ENDROOT
BRANCH   1   3
ATOM      3  O   UNL     1      24.947  18.361 -15.044  1.00  0.00    -0.429 OA
BRANCH   3   4
ATOM      4  C   UNL     1      26.283  18.677 -14.619  1.00  0.00     0.345 C 
ATOM      5  C   UNL     1      26.668  20.027 -16.546  1.00  0.00     0.285 C 
ATOM      6  C   UNL     1      26.683  21.322 -15.715  1.00  0.00     0.202 C 
ATOM      7  O   UNL     1      27.112  18.920 -15.767  1.00  0.00    -0.308 OA
ATOM      8  C   UNL     1      25.826  21.145 -14.467  1.00  0.00     0.183 C 
ATOM      9  C   UNL     1      26.276  19.909 -13.689  1.00  0.00     0.215 C 
BRANCH   5  10
ATOM     10  O   UNL     1      27.550  20.251 -17.658  1.00  0.00    -0.353 OA
ATOM     11  C   UNL     1      28.578  19.271 -17.722  1.00  0.00     0.198 C 
ENDBRANCH   5  10
BRANCH   6  12
ATOM     12  O   UNL     1      26.181  22.438 -16.468  1.00  0.00    -0.385 OA
ATOM     13  H   UNL     1      25.223  22.269 -16.569  1.00  0.00     0.211 HD
ENDBRANCH   6  12
BRANCH   8  14
ATOM     14  O   UNL     1      25.943  22.301 -13.618  1.00  0.00    -0.387 OA
ATOM     15  H   UNL     1      26.093  21.940 -12.720  1.00  0.00     0.211 HD
ENDBRANCH   8  14
BRANCH   9  16
ATOM     16  O   UNL     1      25.420  19.736 -12.554  1.00  0.00    -0.384 OA
ATOM     17  H   UNL     1      24.960  20.593 -12.449  1.00  0.00     0.211 HD
ENDBRANCH   9  16
ENDBRANCH   3   4
ENDBRANCH   1   3
BRANCH   1  18
ATOM     18  C   UNL     1      23.166  17.023 -14.348  1.00  0.00     0.067 A 
ATOM     19  C   UNL     1      22.251  16.198 -15.028  1.00  0.00     0.066 A 
ATOM     20  C   UNL     1      22.750  17.763 -13.231  1.00  0.00     0.066 A 
ATOM     21  C   UNL     1      20.935  16.119 -14.584  1.00  0.00     0.162 A 
ATOM     22  C   UNL     1      21.431  17.670 -12.806  1.00  0.00     0.162 A 
ATOM     23  C   UNL     1      20.528  16.854 -13.476  1.00  0.00     0.200 A 
BRANCH  21  24
ATOM     24  O   UNL     1      20.005  15.333 -15.203  1.00  0.00    -0.504 OA
ATOM     25  H   UNL     1      20.045  14.442 -14.810  1.00  0.00     0.293 HD
ENDBRANCH  21  24
BRANCH  22  26
ATOM     26  O   UNL     1      21.025  18.391 -11.722  1.00  0.00    -0.504 OA
ATOM     27  H   UNL     1      20.087  18.142 -11.594  1.00  0.00     0.293 HD
ENDBRANCH  22  26
BRANCH  23  28
ATOM     28  O   UNL     1      19.236  16.786 -13.031  1.00  0.00    -0.502 OA
ATOM     29  H   UNL     1      19.073  15.827 -12.909  1.00  0.00     0.293 HD
ENDBRANCH  23  28
ENDBRANCH   1  18
TORSDOF 10
ENDMDL
MODEL 4
REMARK VINA RESULT:    -6.885      1.704      6.497
REMARK INTER + INTRA:         -10.337
REMARK INTER:                 -10.349
REMARK INTRA:                   0.012
REMARK UNBOUND:                -0.635
REMARK SMILES CO[C@H]1OC(OC(=O)c2cc(O)c(O)c(O)c2)[C@H](O)[C@@H](O)[C@@H]1O
REMARK SMILES IDX 7 1 8 2 6 3 5 4 3 5 22 6 4 7 20 8 18 9 2 10 1 11 23 12 21 14
REMARK SMILES IDX 19 16 9 18 17 19 10 20 15 21 11 22 13 23 16 24 12 26 14 28
REMARK H PARENT 23 13 21 15 19 17 16 25 12 27 14 29
ROOT
ATOM      1  C   UNL     1      23.530  16.297 -14.352  1.00  0.00     0.340 C 
ATOM      2  O   UNL     1      23.772  15.381 -15.120  1.00  0.00    -0.246 OA
ENDROOT
BRANCH   1   3
ATOM      3  O   UNL     1      22.358  16.536 -13.718  1.00  0.00    -0.429 OA
BRANCH   3   4
ATOM      4  C   UNL     1      21.660  17.724 -14.125  1.00  0.00     0.345 C 
ATOM      5  C   UNL     1      20.261  16.497 -15.614  1.00  0.00     0.285 C 
ATOM      6  C   UNL     1      19.018  16.723 -14.737  1.00  0.00     0.202 C 
ATOM      7  O   UNL     1      21.185  17.571 -15.472  1.00  0.00    -0.308 OA
ATOM      8  C   UNL     1      19.437  16.904 -13.283  1.00  0.00     0.183 C 
ATOM      9  C   UNL     1      20.483  18.012 -13.169  1.00  0.00     0.215 C 
BRANCH   5  10
ATOM     10  O   UNL     1      19.789  16.409 -16.968  1.00  0.00    -0.353 OA
ATOM     11  C   UNL     1      20.374  15.314 -17.661  1.00  0.00     0.198 C 
ENDBRANCH   5  10
BRANCH   6  12
ATOM     12  O   UNL     1      18.102  15.620 -14.823  1.00  0.00    -0.385 OA
ATOM     13  H   UNL     1      17.483  15.743 -14.075  1.00  0.00     0.211 HD
ENDBRANCH   6  12
BRANCH   8  14
ATOM     14  O   UNL     1      18.296  17.251 -12.477  1.00  0.00    -0.387 OA
ATOM     15  H   UNL     1      17.671  17.680 -13.097  1.00  0.00     0.211 HD
ENDBRANCH   8  14
BRANCH   9  16
ATOM     16  O   UNL     1      20.898  18.120 -11.802  1.00  0.00    -0.384 OA
ATOM     17  H   UNL     1      21.753  18.596 -11.832  1.00  0.00     0.211 HD
ENDBRANCH   9  16
ENDBRANCH   3   4
ENDBRANCH   1   3
BRANCH   1  18
ATOM     18  C   UNL     1      24.539  17.325 -13.980  1.00  0.00     0.067 A 
ATOM     19  C   UNL     1      25.653  16.907 -13.230  1.00  0.00     0.066 A 
ATOM     20  C   UNL     1      24.405  18.673 -14.349  1.00  0.00     0.066 A 
ATOM     21  C   UNL     1      26.619  17.835 -12.859  1.00  0.00     0.162 A 
ATOM     22  C   UNL     1      25.383  19.583 -13.966  1.00  0.00     0.162 A 
ATOM     23  C   UNL     1      26.483  19.169 -13.227  1.00  0.00     0.200 A 
BRANCH  21  24
ATOM     24  O   UNL     1      27.723  17.485 -12.132  1.00  0.00    -0.504 OA
ATOM     25  H   UNL     1      27.426  17.130 -11.274  1.00  0.00     0.293 HD
ENDBRANCH  21  24
BRANCH  22  26
ATOM     26  O   UNL     1      25.252  20.893 -14.322  1.00  0.00    -0.504 OA
ATOM     27  H   UNL     1      26.146  21.160 -14.618  1.00  0.00     0.293 HD
ENDBRANCH  22  26
BRANCH  23  28
ATOM     28  O   UNL     1      27.427  20.091 -12.866  1.00  0.00    -0.502 OA
ATOM     29  H   UNL     1      27.338  20.161 -11.893  1.00  0.00     0.293 HD
ENDBRANCH  23  28
ENDBRANCH   1  18
TORSDOF 10
ENDMDL
MODEL 5
REMARK VINA RESULT:    -6.821      1.393      6.557
REMARK INTER + INTRA:         -10.247
REMARK INTER:                  -9.572
REMARK INTRA:                  -0.674
REMARK UNBOUND:                -0.635
REMARK SMILES CO[C@H]1OC(OC(=O)c2cc(O)c(O)c(O)c2)[C@H](O)[C@@H](O)[C@@H]1O
REMARK SMILES IDX 7 1 8 2 6 3 5 4 3 5 22 6 4 7 20 8 18 9 2 10 1 11 23 12 21 14
REMARK SMILES IDX 19 16 9 18 17 19 10 20 15 21 11 22 13 23 16 24 12 26 14 28
REMARK H PARENT 23 13 21 15 19 17 16 25 12 27 14 29
ROOT
ATOM      1  C   UNL     1      23.190  17.073 -15.766  1.00  0.00     0.340 C 
ATOM      2  O   UNL     1      23.296  16.847 -16.960  1.00  0.00    -0.246 OA
ENDROOT
BRANCH   1   3
ATOM      3  O   UNL     1      22.080  16.924 -15.007  1.00  0.00    -0.429 OA
BRANCH   3   4
ATOM      4  C   UNL     1      21.234  18.081 -14.906  1.00  0.00     0.345 C 
ATOM      5  C   UNL     1      19.463  16.994 -16.075  1.00  0.00     0.285 C 
ATOM      6  C   UNL     1      18.588  16.919 -14.811  1.00  0.00     0.202 C 
ATOM      7  O   UNL     1      20.331  18.121 -16.024  1.00  0.00    -0.308 OA
ATOM      8  C   UNL     1      19.473  16.879 -13.571  1.00  0.00     0.183 C 
ATOM      9  C   UNL     1      20.445  18.059 -13.579  1.00  0.00     0.215 C 
BRANCH   5  10
ATOM     10  O   UNL     1      18.558  17.101 -17.186  1.00  0.00    -0.353 OA
ATOM     11  C   UNL     1      18.840  16.134 -18.190  1.00  0.00     0.198 C 
ENDBRANCH   5  10
BRANCH   6  12
ATOM     12  O   UNL     1      17.747  15.754 -14.819  1.00  0.00    -0.385 OA
ATOM     13  H   UNL     1      18.122  15.173 -15.512  1.00  0.00     0.211 HD
ENDBRANCH   6  12
BRANCH   8  14
ATOM     14  O   UNL     1      18.665  16.946 -12.383  1.00  0.00    -0.387 OA
ATOM     15  H   UNL     1      19.265  17.289 -11.688  1.00  0.00     0.211 HD
ENDBRANCH   8  14
BRANCH   9  16
ATOM     16  O   UNL     1      21.300  17.964 -12.434  1.00  0.00    -0.384 OA
ATOM     17  H   UNL     1      20.703  17.761 -11.686  1.00  0.00     0.211 HD
ENDBRANCH   9  16
ENDBRANCH   3   4
ENDBRANCH   1   3
BRANCH   1  18
ATOM     18  C   UNL     1      24.324  17.561 -14.935  1.00  0.00     0.067 A 
ATOM     19  C   UNL     1      25.259  18.419 -15.543  1.00  0.00     0.066 A 
ATOM     20  C   UNL     1      24.481  17.189 -13.591  1.00  0.00     0.066 A 
ATOM     21  C   UNL     1      26.335  18.897 -14.804  1.00  0.00     0.162 A 
ATOM     22  C   UNL     1      25.565  17.678 -12.873  1.00  0.00     0.162 A 
ATOM     23  C   UNL     1      26.487  18.526 -13.473  1.00  0.00     0.200 A 
BRANCH  21  24
ATOM     24  O   UNL     1      27.272  19.734 -15.341  1.00  0.00    -0.504 OA
ATOM     25  H   UNL     1      27.862  20.036 -14.626  1.00  0.00     0.293 HD
ENDBRANCH  21  24
BRANCH  22  26
ATOM     26  O   UNL     1      25.720  17.314 -11.567  1.00  0.00    -0.504 OA
ATOM     27  H   UNL     1      26.676  17.427 -11.389  1.00  0.00     0.293 HD
ENDBRANCH  22  26
BRANCH  23  28
ATOM     28  O   UNL     1      27.543  18.989 -12.736  1.00  0.00    -0.502 OA
ATOM     29  H   UNL     1      28.333  18.698 -13.237  1.00  0.00     0.293 HD
ENDBRANCH  23  28
ENDBRANCH   1  18
TORSDOF 10
ENDMDL
MODEL 6
REMARK VINA RESULT:    -6.791      4.060      8.019
REMARK INTER + INTRA:         -10.204
REMARK INTER:                  -9.473
REMARK INTRA:                  -0.731
REMARK UNBOUND:                -0.635
REMARK SMILES CO[C@H]1OC(OC(=O)c2cc(O)c(O)c(O)c2)[C@H](O)[C@@H](O)[C@@H]1O
REMARK SMILES IDX 7 1 8 2 6 3 5 4 3 5 22 6 4 7 20 8 18 9 2 10 1 11 23 12 21 14
REMARK SMILES IDX 19 16 9 18 17 19 10 20 15 21 11 22 13 23 16 24 12 26 14 28
REMARK H PARENT 23 13 21 15 19 17 16 25 12 27 14 29
ROOT
ATOM      1  C   UNL     1      26.741  21.655 -18.010  1.00  0.00     0.340 C 
ATOM      2  O   UNL     1      25.923  22.328 -18.617  1.00  0.00    -0.246 OA
ENDROOT
BRANCH   1   3
ATOM      3  O   UNL     1      26.761  21.408 -16.680  1.00  0.00    -0.429 OA
BRANCH   3   4
ATOM      4  C   UNL     1      25.482  21.178 -16.069  1.00  0.00     0.345 C 
ATOM      5  C   UNL     1      26.090  18.963 -15.428  1.00  0.00     0.285 C 
ATOM      6  C   UNL     1      26.126  19.335 -13.936  1.00  0.00     0.202 C 
ATOM      7  O   UNL     1      25.158  19.779 -16.131  1.00  0.00    -0.308 OA
ATOM      8  C   UNL     1      26.458  20.815 -13.779  1.00  0.00     0.183 C 
ATOM      9  C   UNL     1      25.489  21.663 -14.603  1.00  0.00     0.215 C 
BRANCH   5  10
ATOM     10  O   UNL     1      25.702  17.582 -15.490  1.00  0.00    -0.353 OA
ATOM     11  C   UNL     1      25.251  17.218 -16.789  1.00  0.00     0.198 C 
ENDBRANCH   5  10
BRANCH   6  12
ATOM     12  O   UNL     1      27.104  18.562 -13.222  1.00  0.00    -0.385 OA
ATOM     13  H   UNL     1      26.609  18.135 -12.493  1.00  0.00     0.211 HD
ENDBRANCH   6  12
BRANCH   8  14
ATOM     14  O   UNL     1      26.361  21.201 -12.397  1.00  0.00    -0.387 OA
ATOM     15  H   UNL     1      26.324  22.180 -12.410  1.00  0.00     0.211 HD
ENDBRANCH   8  14
BRANCH   9  16
ATOM     16  O   UNL     1      25.860  23.041 -14.482  1.00  0.00    -0.384 OA
ATOM     17  H   UNL     1      25.936  23.202 -13.520  1.00  0.00     0.211 HD
ENDBRANCH   9  16
ENDBRANCH   3   4
ENDBRANCH   1   3
BRANCH   1  18
ATOM     18  C   UNL     1      27.878  20.971 -18.682  1.00  0.00     0.067 A 
ATOM     19  C   UNL     1      28.091  21.242 -20.046  1.00  0.00     0.066 A 
ATOM     20  C   UNL     1      28.723  20.079 -18.002  1.00  0.00     0.066 A 
ATOM     21  C   UNL     1      29.142  20.623 -20.714  1.00  0.00     0.162 A 
ATOM     22  C   UNL     1      29.765  19.472 -18.690  1.00  0.00     0.162 A 
ATOM     23  C   UNL     1      29.976  19.741 -20.037  1.00  0.00     0.200 A 
BRANCH  21  24
ATOM     24  O   UNL     1      29.397  20.850 -22.037  1.00  0.00    -0.504 OA
ATOM     25  H   UNL     1      28.560  21.094 -22.474  1.00  0.00     0.293 HD
ENDBRANCH  21  24
BRANCH  22  26
ATOM     26  O   UNL     1      30.585  18.604 -18.031  1.00  0.00    -0.504 OA
ATOM     27  H   UNL     1      29.978  17.961 -17.609  1.00  0.00     0.293 HD
ENDBRANCH  22  26
BRANCH  23  28
ATOM     28  O   UNL     1      31.012  19.125 -20.684  1.00  0.00    -0.502 OA
ATOM     29  H   UNL     1      31.462  18.609 -19.983  1.00  0.00     0.293 HD
ENDBRANCH  23  28
ENDBRANCH   1  18
TORSDOF 10
ENDMDL
MODEL 7
REMARK VINA RESULT:    -6.786      3.118      5.931
REMARK INTER + INTRA:         -10.198
REMARK INTER:                  -9.778
REMARK INTRA:                  -0.420
REMARK UNBOUND:                -0.635
REMARK SMILES CO[C@H]1OC(OC(=O)c2cc(O)c(O)c(O)c2)[C@H](O)[C@@H](O)[C@@H]1O
REMARK SMILES IDX 7 1 8 2 6 3 5 4 3 5 22 6 4 7 20 8 18 9 2 10 1 11 23 12 21 14
REMARK SMILES IDX 19 16 9 18 17 19 10 20 15 21 11 22 13 23 16 24 12 26 14 28
REMARK H PARENT 23 13 21 15 19 17 16 25 12 27 14 29
ROOT
ATOM      1  C   UNL     1      22.048  16.506 -16.661  1.00  0.00     0.340 C 
ATOM      2  O   UNL     1      22.089  17.024 -17.765  1.00  0.00    -0.246 OA
ENDROOT
BRANCH   1   3
ATOM      3  O   UNL     1      22.303  17.104 -15.474  1.00  0.00    -0.429 OA
BRANCH   3   4
ATOM      4  C   UNL     1      21.665  18.374 -15.266  1.00  0.00     0.345 C 
ATOM      5  C   UNL     1      19.572  17.340 -14.783  1.00  0.00     0.285 C 
ATOM      6  C   UNL     1      19.640  17.745 -13.300  1.00  0.00     0.202 C 
ATOM      7  O   UNL     1      20.270  18.276 -15.597  1.00  0.00    -0.308 OA
ATOM      8  C   UNL     1      21.095  17.879 -12.866  1.00  0.00     0.183 C 
ATOM      9  C   UNL     1      21.839  18.831 -13.802  1.00  0.00     0.215 C 
BRANCH   5  10
ATOM     10  O   UNL     1      18.178  17.307 -15.128  1.00  0.00    -0.353 OA
ATOM     11  C   UNL     1      17.857  16.168 -15.918  1.00  0.00     0.198 C 
ENDBRANCH   5  10
BRANCH   6  12
ATOM     12  O   UNL     1      18.990  16.779 -12.458  1.00  0.00    -0.385 OA
ATOM     13  H   UNL     1      18.608  16.120 -13.072  1.00  0.00     0.211 HD
ENDBRANCH   6  12
BRANCH   8  14
ATOM     14  O   UNL     1      21.167  18.388 -11.523  1.00  0.00    -0.387 OA
ATOM     15  H   UNL     1      20.697  17.726 -10.976  1.00  0.00     0.211 HD
ENDBRANCH   8  14
BRANCH   9  16
ATOM     16  O   UNL     1      23.213  18.893 -13.405  1.00  0.00    -0.384 OA
ATOM     17  H   UNL     1      23.720  18.627 -14.198  1.00  0.00     0.211 HD
ENDBRANCH   9  16
ENDBRANCH   3   4
ENDBRANCH   1   3
BRANCH   1  18
ATOM     18  C   UNL     1      21.685  15.078 -16.454  1.00  0.00     0.067 A 
ATOM     19  C   UNL     1      20.742  14.510 -17.330  1.00  0.00     0.066 A 
ATOM     20  C   UNL     1      22.246  14.304 -15.426  1.00  0.00     0.066 A 
ATOM     21  C   UNL     1      20.372  13.178 -17.171  1.00  0.00     0.162 A 
ATOM     22  C   UNL     1      21.860  12.977 -15.286  1.00  0.00     0.162 A 
ATOM     23  C   UNL     1      20.931  12.416 -16.152  1.00  0.00     0.200 A 
BRANCH  21  24
ATOM     24  O   UNL     1      19.464  12.573 -17.994  1.00  0.00    -0.504 OA
ATOM     25  H   UNL     1      18.599  12.564 -17.543  1.00  0.00     0.293 HD
ENDBRANCH  21  24
BRANCH  22  26
ATOM     26  O   UNL     1      22.404  12.226 -14.286  1.00  0.00    -0.504 OA
ATOM     27  H   UNL     1      21.685  12.132 -13.627  1.00  0.00     0.293 HD
ENDBRANCH  22  26
BRANCH  23  28
ATOM     28  O   UNL     1      20.574  11.106 -15.986  1.00  0.00    -0.502 OA
ATOM     29  H   UNL     1      20.376  11.028 -15.030  1.00  0.00     0.293 HD
ENDBRANCH  23  28
ENDBRANCH   1  18
TORSDOF 10
ENDMDL
MODEL 8
REMARK VINA RESULT:    -6.660      2.509      7.275
REMARK INTER + INTRA:         -10.020
REMARK INTER:                  -9.433
REMARK INTRA:                  -0.587
REMARK UNBOUND:                -0.635
REMARK SMILES CO[C@H]1OC(OC(=O)c2cc(O)c(O)c(O)c2)[C@H](O)[C@@H](O)[C@@H]1O
REMARK SMILES IDX 7 1 8 2 6 3 5 4 3 5 22 6 4 7 20 8 18 9 2 10 1 11 23 12 21 14
REMARK SMILES IDX 19 16 9 18 17 19 10 20 15 21 11 22 13 23 16 24 12 26 14 28
REMARK H PARENT 23 13 21 15 19 17 16 25 12 27 14 29
ROOT
ATOM      1  C   UNL     1      21.171  16.707 -15.360  1.00  0.00     0.340 C 
ATOM      2  O   UNL     1      21.453  16.304 -16.477  1.00  0.00    -0.246 OA
ENDROOT
BRANCH   1   3
ATOM      3  O   UNL     1      19.929  16.886 -14.853  1.00  0.00    -0.429 OA
BRANCH   3   4
ATOM      4  C   UNL     1      19.050  17.712 -15.633  1.00  0.00     0.345 C 
ATOM      5  C   UNL     1      17.404  15.992 -15.757  1.00  0.00     0.285 C 
ATOM      6  C   UNL     1      16.434  16.765 -14.846  1.00  0.00     0.202 C 
ATOM      7  O   UNL     1      18.238  16.887 -16.485  1.00  0.00    -0.308 OA
ATOM      8  C   UNL     1      17.219  17.676 -13.910  1.00  0.00     0.183 C 
ATOM      9  C   UNL     1      18.160  18.573 -14.712  1.00  0.00     0.215 C 
BRANCH   5  10
ATOM     10  O   UNL     1      16.588  15.218 -16.651  1.00  0.00    -0.353 OA
ATOM     11  C   UNL     1      16.934  13.839 -16.621  1.00  0.00     0.198 C 
ENDBRANCH   5  10
BRANCH   6  12
ATOM     12  O   UNL     1      15.624  15.876 -14.060  1.00  0.00    -0.385 OA
ATOM     13  H   UNL     1      14.701  16.090 -14.303  1.00  0.00     0.211 HD
ENDBRANCH   6  12
BRANCH   8  14
ATOM     14  O   UNL     1      16.318  18.501 -13.150  1.00  0.00    -0.387 OA
ATOM     15  H   UNL     1      16.059  19.221 -13.761  1.00  0.00     0.211 HD
ENDBRANCH   8  14
BRANCH   9  16
ATOM     16  O   UNL     1      18.923  19.376 -13.804  1.00  0.00    -0.384 OA
ATOM     17  H   UNL     1      18.576  20.284 -13.912  1.00  0.00     0.211 HD
ENDBRANCH   9  16
ENDBRANCH   3   4
ENDBRANCH   1   3
BRANCH   1  18
ATOM     18  C   UNL     1      22.201  17.066 -14.350  1.00  0.00     0.067 A 
ATOM     19  C   UNL     1      21.780  17.778 -13.211  1.00  0.00     0.066 A 
ATOM     20  C   UNL     1      23.554  16.724 -14.504  1.00  0.00     0.066 A 
ATOM     21  C   UNL     1      22.710  18.137 -12.242  1.00  0.00     0.162 A 
ATOM     22  C   UNL     1      24.465  17.094 -13.524  1.00  0.00     0.162 A 
ATOM     23  C   UNL     1      24.049  17.795 -12.400  1.00  0.00     0.200 A 
BRANCH  21  24
ATOM     24  O   UNL     1      22.358  18.825 -11.116  1.00  0.00    -0.504 OA
ATOM     25  H   UNL     1      22.178  19.751 -11.365  1.00  0.00     0.293 HD
ENDBRANCH  21  24
BRANCH  22  26
ATOM     26  O   UNL     1      25.780  16.763 -13.675  1.00  0.00    -0.504 OA
ATOM     27  H   UNL     1      25.789  15.784 -13.694  1.00  0.00     0.293 HD
ENDBRANCH  22  26
BRANCH  23  28
ATOM     28  O   UNL     1      24.973  18.143 -11.453  1.00  0.00    -0.502 OA
ATOM     29  H   UNL     1      24.439  18.496 -10.711  1.00  0.00     0.293 HD
ENDBRANCH  23  28
ENDBRANCH   1  18
TORSDOF 10
ENDMDL
MODEL 9
REMARK VINA RESULT:    -6.582      4.447      8.372
REMARK INTER + INTRA:          -9.910
REMARK INTER:                  -9.186
REMARK INTRA:                  -0.724
REMARK UNBOUND:                -0.635
REMARK SMILES CO[C@H]1OC(OC(=O)c2cc(O)c(O)c(O)c2)[C@H](O)[C@@H](O)[C@@H]1O
REMARK SMILES IDX 7 1 8 2 6 3 5 4 3 5 22 6 4 7 20 8 18 9 2 10 1 11 23 12 21 14
REMARK SMILES IDX 19 16 9 18 17 19 10 20 15 21 11 22 13 23 16 24 12 26 14 28
REMARK H PARENT 23 13 21 15 19 17 16 25 12 27 14 29
ROOT
ATOM      1  C   UNL     1      19.576  15.644 -17.728  1.00  0.00     0.340 C 
ATOM      2  O   UNL     1      19.696  15.616 -18.942  1.00  0.00    -0.246 OA
ENDROOT
BRANCH   1   3
ATOM      3  O   UNL     1      18.689  16.378 -17.017  1.00  0.00    -0.429 OA
BRANCH   3   4
ATOM      4  C   UNL     1      17.364  16.457 -17.566  1.00  0.00     0.345 C 
ATOM      5  C   UNL     1      16.580  14.706 -16.152  1.00  0.00     0.285 C 
ATOM      6  C   UNL     1      15.708  15.671 -15.330  1.00  0.00     0.202 C 
ATOM      7  O   UNL     1      16.729  15.170 -17.489  1.00  0.00    -0.308 OA
ATOM      8  C   UNL     1      16.311  17.070 -15.366  1.00  0.00     0.183 C 
ATOM      9  C   UNL     1      16.529  17.514 -16.812  1.00  0.00     0.215 C 
BRANCH   5  10
ATOM     10  O   UNL     1      15.908  13.436 -16.128  1.00  0.00    -0.353 OA
ATOM     11  C   UNL     1      16.475  12.522 -17.059  1.00  0.00     0.198 C 
ENDBRANCH   5  10
BRANCH   6  12
ATOM     12  O   UNL     1      15.596  15.248 -13.962  1.00  0.00    -0.385 OA
ATOM     13  H   UNL     1      14.961  14.503 -13.976  1.00  0.00     0.211 HD
ENDBRANCH   6  12
BRANCH   8  14
ATOM     14  O   UNL     1      15.433  18.006 -14.716  1.00  0.00    -0.387 OA
ATOM     15  H   UNL     1      15.893  18.869 -14.776  1.00  0.00     0.211 HD
ENDBRANCH   8  14
BRANCH   9  16
ATOM     16  O   UNL     1      17.148  18.806 -16.813  1.00  0.00    -0.384 OA
ATOM     17  H   UNL     1      17.973  18.695 -16.300  1.00  0.00     0.211 HD
ENDBRANCH   9  16
ENDBRANCH   3   4
ENDBRANCH   1   3
BRANCH   1  18
ATOM     18  C   UNL     1      20.424  14.831 -16.816  1.00  0.00     0.067 A 
ATOM     19  C   UNL     1      20.202  13.442 -16.780  1.00  0.00     0.066 A 
ATOM     20  C   UNL     1      21.416  15.406 -16.004  1.00  0.00     0.066 A 
ATOM     21  C   UNL     1      20.971  12.645 -15.939  1.00  0.00     0.162 A 
ATOM     22  C   UNL     1      22.170  14.589 -15.172  1.00  0.00     0.162 A 
ATOM     23  C   UNL     1      21.952  13.218 -15.138  1.00  0.00     0.200 A 
BRANCH  21  24
ATOM     24  O   UNL     1      20.800  11.291 -15.866  1.00  0.00    -0.504 OA
ATOM     25  H   UNL     1      21.553  10.912 -15.375  1.00  0.00     0.293 HD
ENDBRANCH  21  24
BRANCH  22  26
ATOM     26  O   UNL     1      23.132  15.147 -14.382  1.00  0.00    -0.504 OA
ATOM     27  H   UNL     1      23.977  14.795 -14.732  1.00  0.00     0.293 HD
ENDBRANCH  22  26
BRANCH  23  28
ATOM     28  O   UNL     1      22.713  12.443 -14.307  1.00  0.00    -0.502 OA
ATOM     29  H   UNL     1      23.555  12.937 -14.219  1.00  0.00     0.293 HD
ENDBRANCH  23  28
ENDBRANCH   1  18
TORSDOF 10
ENDMDL
