MODEL 1
REMARK VINA RESULT:    -7.338      0.000      0.000
REMARK INTER + INTRA:         -10.981
REMARK INTER:                 -10.341
REMARK INTRA:                  -0.640
REMARK UNBOUND:                -0.640
REMARK SMILES CO[C@H]1OC(OC(=O)c2cc(O)c(O)c(O)c2)[C@H](O)[C@@H](O)[C@@H]1O
REMARK SMILES IDX 7 1 8 2 6 3 5 4 3 5 22 6 4 7 20 8 18 9 2 10 1 11 23 12 21 14
REMARK SMILES IDX 19 16 9 18 17 19 10 20 15 21 11 22 13 23 16 24 12 26 14 28
REMARK H PARENT 23 13 21 15 19 17 16 25 12 27 14 29
ROOT
ATOM      1  C   UNL     1      22.676  17.914 -16.262  1.00  0.00     0.340 C 
ATOM      2  O   UNL     1      22.487  17.808 -17.463  1.00  0.00    -0.246 OA
ENDROOT
BRANCH   1   3
ATOM      3  O   UNL     1      23.817  18.312 -15.652  1.00  0.00    -0.429 OA
BRANCH   3   4
ATOM      4  C   UNL     1      24.994  17.554 -15.975  1.00  0.00     0.345 C 
ATOM      5  C   UNL     1      26.431  19.301 -15.221  1.00  0.00     0.285 C 
ATOM      6  C   UNL     1      26.898  18.480 -14.006  1.00  0.00     0.202 C 
ATOM      7  O   UNL     1      26.072  18.447 -16.302  1.00  0.00    -0.308 OA
ATOM      8  C   UNL     1      25.808  17.496 -13.596  1.00  0.00     0.183 C 
ATOM      9  C   UNL     1      25.390  16.644 -14.794  1.00  0.00     0.215 C 
BRANCH   5  10
ATOM     10  O   UNL     1      27.534  20.145 -15.585  1.00  0.00    -0.353 OA
ATOM     11  C   UNL     1      27.198  21.018 -16.658  1.00  0.00     0.198 C 
ENDBRANCH   5  10
BRANCH   6  12
ATOM     12  O   UNL     1      27.208  19.324 -12.886  1.00  0.00    -0.385 OA
ATOM     13  H   UNL     1      26.342  19.642 -12.558  1.00  0.00     0.211 HD
ENDBRANCH   6  12
BRANCH   8  14
ATOM     14  O   UNL     1      26.287  16.633 -12.550  1.00  0.00    -0.387 OA
ATOM     15  H   UNL     1      25.481  16.331 -12.083  1.00  0.00     0.211 HD
ENDBRANCH   8  14
BRANCH   9  16
ATOM     16  O   UNL     1      24.328  15.770 -14.394  1.00  0.00    -0.384 OA
ATOM     17  H   UNL     1      24.207  15.936 -13.437  1.00  0.00     0.211 HD
ENDBRANCH   9  16
ENDBRANCH   3   4
ENDBRANCH   1   3
BRANCH   1  18
ATOM     18  C   UNL     1      21.626  17.614 -15.252  1.00  0.00     0.067 A 
ATOM     19  C   UNL     1      21.819  18.097 -13.945  1.00  0.00     0.066 A 
ATOM     20  C   UNL     1      20.476  16.872 -15.566  1.00  0.00     0.066 A 
ATOM     21  C   UNL     1      20.863  17.836 -12.969  1.00  0.00     0.162 A 
ATOM     22  C   UNL     1      19.537  16.623 -14.574  1.00  0.00     0.162 A 
ATOM     23  C   UNL     1      19.726  17.102 -13.284  1.00  0.00     0.200 A 
BRANCH  21  24
ATOM     24  O   UNL     1      20.997  18.283 -11.684  1.00  0.00    -0.504 OA
ATOM     25  H   UNL     1      21.105  19.251 -11.704  1.00  0.00     0.293 HD
ENDBRANCH  21  24
BRANCH  22  26
ATOM     26  O   UNL     1      18.420  15.900 -14.877  1.00  0.00    -0.504 OA
ATOM     27  H   UNL     1      17.735  16.230 -14.260  1.00  0.00     0.293 HD
ENDBRANCH  22  26
BRANCH  23  28
ATOM     28  O   UNL     1      18.780  16.839 -12.331  1.00  0.00    -0.502 OA
ATOM     29  H   UNL     1      18.652  17.696 -11.874  1.00  0.00     0.293 HD
ENDBRANCH  23  28
ENDBRANCH   1  18
TORSDOF 10
ENDMDL
MODEL 2
REMARK VINA RESULT:    -7.268      0.078      1.727
REMARK INTER + INTRA:         -10.882
REMARK INTER:                 -10.305
REMARK INTRA:                  -0.577
REMARK UNBOUND:                -0.640
REMARK SMILES CO[C@H]1OC(OC(=O)c2cc(O)c(O)c(O)c2)[C@H](O)[C@@H](O)[C@@H]1O
REMARK SMILES IDX 7 1 8 2 6 3 5 4 3 5 22 6 4 7 20 8 18 9 2 10 1 11 23 12 21 14
REMARK SMILES IDX 19 16 9 18 17 19 10 20 15 21 11 22 13 23 16 24 12 26 14 28
REMARK H PARENT 23 13 21 15 19 17 16 25 12 27 14 29
ROOT
ATOM      1  C   UNL     1      22.699  17.800 -16.251  1.00  0.00     0.340 C 
ATOM      2  O   UNL     1      22.484  17.596 -17.435  1.00  0.00    -0.246 OA
ENDROOT
BRANCH   1   3
ATOM      3  O   UNL     1      23.847  18.264 -15.703  1.00  0.00    -0.429 OA
BRANCH   3   4
ATOM      4  C   UNL     1      25.028  17.497 -15.987  1.00  0.00     0.345 C 
ATOM      5  C   UNL     1      26.454  19.270 -15.277  1.00  0.00     0.285 C 
ATOM      6  C   UNL     1      26.909  18.491 -14.030  1.00  0.00     0.202 C 
ATOM      7  O   UNL     1      26.108  18.380 -16.332  1.00  0.00    -0.308 OA
ATOM      8  C   UNL     1      25.816  17.521 -13.599  1.00  0.00     0.183 C 
ATOM      9  C   UNL     1      25.412  16.627 -14.771  1.00  0.00     0.215 C 
BRANCH   5  10
ATOM     10  O   UNL     1      27.560  20.103 -15.658  1.00  0.00    -0.353 OA
ATOM     11  C   UNL     1      27.202  21.017 -16.687  1.00  0.00     0.198 C 
ENDBRANCH   5  10
BRANCH   6  12
ATOM     12  O   UNL     1      27.206  19.373 -12.935  1.00  0.00    -0.385 OA
ATOM     13  H   UNL     1      28.079  19.761 -13.149  1.00  0.00     0.211 HD
ENDBRANCH   6  12
BRANCH   8  14
ATOM     14  O   UNL     1      26.285  16.694 -12.519  1.00  0.00    -0.387 OA
ATOM     15  H   UNL     1      26.312  17.287 -11.740  1.00  0.00     0.211 HD
ENDBRANCH   8  14
BRANCH   9  16
ATOM     16  O   UNL     1      24.346  15.766 -14.353  1.00  0.00    -0.384 OA
ATOM     17  H   UNL     1      23.808  16.305 -13.739  1.00  0.00     0.211 HD
ENDBRANCH   9  16
ENDBRANCH   3   4
ENDBRANCH   1   3
BRANCH   1  18
ATOM     18  C   UNL     1      21.679  17.563 -15.194  1.00  0.00     0.067 A 
ATOM     19  C   UNL     1      20.541  16.812 -15.541  1.00  0.00     0.066 A 
ATOM     20  C   UNL     1      21.820  18.066 -13.891  1.00  0.00     0.066 A 
ATOM     21  C   UNL     1      19.561  16.568 -14.584  1.00  0.00     0.162 A 
ATOM     22  C   UNL     1      20.828  17.811 -12.953  1.00  0.00     0.162 A 
ATOM     23  C   UNL     1      19.706  17.067 -13.295  1.00  0.00     0.200 A 
BRANCH  21  24
ATOM     24  O   UNL     1      18.437  15.843 -14.864  1.00  0.00    -0.504 OA
ATOM     25  H   UNL     1      18.490  14.997 -14.383  1.00  0.00     0.293 HD
ENDBRANCH  21  24
BRANCH  22  26
ATOM     26  O   UNL     1      20.964  18.301 -11.687  1.00  0.00    -0.504 OA
ATOM     27  H   UNL     1      21.281  17.540 -11.159  1.00  0.00     0.293 HD
ENDBRANCH  22  26
BRANCH  23  28
ATOM     28  O   UNL     1      18.747  16.835 -12.346  1.00  0.00    -0.502 OA
ATOM     29  H   UNL     1      19.129  16.129 -11.785  1.00  0.00     0.293 HD
ENDBRANCH  23  28
ENDBRANCH   1  18
TORSDOF 10
ENDMDL
MODEL 3
REMARK VINA RESULT:    -6.952      1.650      2.805
REMARK INTER + INTRA:         -10.437
REMARK INTER:                  -9.754
REMARK INTRA:                  -0.683
REMARK UNBOUND:                -0.640
REMARK SMILES CO[C@H]1OC(OC(=O)c2cc(O)c(O)c(O)c2)[C@H](O)[C@@H](O)[C@@H]1O
REMARK SMILES IDX 7 1 8 2 6 3 5 4 3 5 22 6 4 7 20 8 18 9 2 10 1 11 23 12 21 14
REMARK SMILES IDX 19 16 9 18 17 19 10 20 15 21 11 22 13 23 16 24 12 26 14 28
REMARK H PARENT 23 13 21 15 19 17 16 25 12 27 14 29
ROOT
ATOM      1  C   UNL     1      24.587  17.107 -14.875  1.00  0.00     0.340 C 
ATOM      2  O   UNL     1      25.286  16.132 -15.096  1.00  0.00    -0.246 OA
ENDROOT
BRANCH   1   3
ATOM      3  O   UNL     1      24.933  18.406 -15.032  1.00  0.00    -0.429 OA
BRANCH   3   4
ATOM      4  C   UNL     1      26.286  18.737 -14.684  1.00  0.00     0.345 C 
ATOM      5  C   UNL     1      26.577  20.015 -16.675  1.00  0.00     0.285 C 
ATOM      6  C   UNL     1      26.629  21.340 -15.894  1.00  0.00     0.202 C 
ATOM      7  O   UNL     1      27.060  18.938 -15.878  1.00  0.00    -0.308 OA
ATOM      8  C   UNL     1      25.834  21.210 -14.601  1.00  0.00     0.183 C 
ATOM      9  C   UNL     1      26.322  20.003 -13.801  1.00  0.00     0.215 C 
BRANCH   5  10
ATOM     10  O   UNL     1      27.404  20.198 -17.835  1.00  0.00    -0.353 OA
ATOM     11  C   UNL     1      28.617  19.460 -17.740  1.00  0.00     0.198 C 
ENDBRANCH   5  10
BRANCH   6  12
ATOM     12  O   UNL     1      26.091  22.428 -16.663  1.00  0.00    -0.385 OA
ATOM     13  H   UNL     1      26.826  23.069 -16.748  1.00  0.00     0.211 HD
ENDBRANCH   6  12
BRANCH   8  14
ATOM     14  O   UNL     1      25.988  22.396 -13.802  1.00  0.00    -0.387 OA
ATOM     15  H   UNL     1      25.375  23.049 -14.198  1.00  0.00     0.211 HD
ENDBRANCH   8  14
BRANCH   9  16
ATOM     16  O   UNL     1      25.521  19.873 -12.621  1.00  0.00    -0.384 OA
ATOM     17  H   UNL     1      25.717  20.670 -12.089  1.00  0.00     0.211 HD
ENDBRANCH   9  16
ENDBRANCH   3   4
ENDBRANCH   1   3
BRANCH   1  18
ATOM     18  C   UNL     1      23.186  16.999 -14.386  1.00  0.00     0.067 A 
ATOM     19  C   UNL     1      22.828  17.756 -13.255  1.00  0.00     0.066 A 
ATOM     20  C   UNL     1      22.236  16.176 -15.011  1.00  0.00     0.066 A 
ATOM     21  C   UNL     1      21.529  17.683 -12.763  1.00  0.00     0.162 A 
ATOM     22  C   UNL     1      20.946  16.118 -14.501  1.00  0.00     0.162 A 
ATOM     23  C   UNL     1      20.592  16.866 -13.385  1.00  0.00     0.200 A 
BRANCH  21  24
ATOM     24  O   UNL     1      21.125  18.396 -11.670  1.00  0.00    -0.504 OA
ATOM     25  H   UNL     1      21.267  17.849 -10.876  1.00  0.00     0.293 HD
ENDBRANCH  21  24
BRANCH  22  26
ATOM     26  O   UNL     1      20.023  15.316 -15.106  1.00  0.00    -0.504 OA
ATOM     27  H   UNL     1      19.983  14.515 -14.544  1.00  0.00     0.293 HD
ENDBRANCH  22  26
BRANCH  23  28
ATOM     28  O   UNL     1      19.312  16.786 -12.909  1.00  0.00    -0.502 OA
ATOM     29  H   UNL     1      19.153  17.659 -12.495  1.00  0.00     0.293 HD
ENDBRANCH  23  28
ENDBRANCH   1  18
TORSDOF 10
ENDMDL
MODEL 4
REMARK VINA RESULT:    -6.912      1.578      3.130
REMARK INTER + INTRA:         -10.381
REMARK INTER:                  -9.716
REMARK INTRA:                  -0.665
REMARK UNBOUND:                -0.640
REMARK SMILES CO[C@H]1OC(OC(=O)c2cc(O)c(O)c(O)c2)[C@H](O)[C@@H](O)[C@@H]1O
REMARK SMILES IDX 7 1 8 2 6 3 5 4 3 5 22 6 4 7 20 8 18 9 2 10 1 11 23 12 21 14
REMARK SMILES IDX 19 16 9 18 17 19 10 20 15 21 11 22 13 23 16 24 12 26 14 28
REMARK H PARENT 23 13 21 15 19 17 16 25 12 27 14 29
ROOT
ATOM      1  C   UNL     1      24.388  16.946 -14.856  1.00  0.00     0.340 C 
ATOM      2  O   UNL     1      25.016  15.921 -15.067  1.00  0.00    -0.246 OA
ENDROOT
BRANCH   1   3
ATOM      3  O   UNL     1      24.817  18.215 -15.051  1.00  0.00    -0.429 OA
BRANCH   3   4
ATOM      4  C   UNL     1      26.172  18.482 -14.658  1.00  0.00     0.345 C 
ATOM      5  C   UNL     1      26.554  19.836 -16.583  1.00  0.00     0.285 C 
ATOM      6  C   UNL     1      26.633  21.123 -15.743  1.00  0.00     0.202 C 
ATOM      7  O   UNL     1      26.980  18.709 -15.824  1.00  0.00    -0.308 OA
ATOM      8  C   UNL     1      25.802  20.963 -14.474  1.00  0.00     0.183 C 
ATOM      9  C   UNL     1      26.230  19.706 -13.718  1.00  0.00     0.215 C 
BRANCH   5  10
ATOM     10  O   UNL     1      27.415  20.041 -17.715  1.00  0.00    -0.353 OA
ATOM     11  C   UNL     1      28.502  19.123 -17.724  1.00  0.00     0.198 C 
ENDBRANCH   5  10
BRANCH   6  12
ATOM     12  O   UNL     1      26.150  22.261 -16.474  1.00  0.00    -0.385 OA
ATOM     13  H   UNL     1      26.292  23.026 -15.879  1.00  0.00     0.211 HD
ENDBRANCH   6  12
BRANCH   8  14
ATOM     14  O   UNL     1      25.978  22.107 -13.619  1.00  0.00    -0.387 OA
ATOM     15  H   UNL     1      25.915  21.753 -12.708  1.00  0.00     0.211 HD
ENDBRANCH   8  14
BRANCH   9  16
ATOM     16  O   UNL     1      25.397  19.552 -12.564  1.00  0.00    -0.384 OA
ATOM     17  H   UNL     1      25.930  19.891 -11.817  1.00  0.00     0.211 HD
ENDBRANCH   9  16
ENDBRANCH   3   4
ENDBRANCH   1   3
BRANCH   1  18
ATOM     18  C   UNL     1      22.994  16.944 -14.337  1.00  0.00     0.067 A 
ATOM     19  C   UNL     1      22.046  16.154 -15.012  1.00  0.00     0.066 A 
ATOM     20  C   UNL     1      22.611  17.699 -13.216  1.00  0.00     0.066 A 
ATOM     21  C   UNL     1      20.731  16.124 -14.562  1.00  0.00     0.162 A 
ATOM     22  C   UNL     1      21.292  17.654 -12.786  1.00  0.00     0.162 A 
ATOM     23  C   UNL     1      20.356  16.873 -13.452  1.00  0.00     0.200 A 
BRANCH  21  24
ATOM     24  O   UNL     1      19.768  15.373 -15.176  1.00  0.00    -0.504 OA
ATOM     25  H   UNL     1      19.023  15.263 -14.558  1.00  0.00     0.293 HD
ENDBRANCH  21  24
BRANCH  22  26
ATOM     26  O   UNL     1      20.919  18.389 -11.699  1.00  0.00    -0.504 OA
ATOM     27  H   UNL     1      21.757  18.749 -11.343  1.00  0.00     0.293 HD
ENDBRANCH  22  26
BRANCH  23  28
ATOM     28  O   UNL     1      19.065  16.853 -13.001  1.00  0.00    -0.502 OA
ATOM     29  H   UNL     1      19.149  16.871 -12.025  1.00  0.00     0.293 HD
ENDBRANCH  23  28
ENDBRANCH   1  18
TORSDOF 10
ENDMDL
MODEL 5
REMARK VINA RESULT:    -6.898      1.699      6.453
REMARK INTER + INTRA:         -10.361
REMARK INTER:                 -10.316
REMARK INTRA:                  -0.045
REMARK UNBOUND:                -0.640
REMARK SMILES CO[C@H]1OC(OC(=O)c2cc(O)c(O)c(O)c2)[C@H](O)[C@@H](O)[C@@H]1O
REMARK SMILES IDX 7 1 8 2 6 3 5 4 3 5 22 6 4 7 20 8 18 9 2 10 1 11 23 12 21 14
REMARK SMILES IDX 19 16 9 18 17 19 10 20 15 21 11 22 13 23 16 24 12 26 14 28
REMARK H PARENT 23 13 21 15 19 17 16 25 12 27 14 29
ROOT
ATOM      1  C   UNL     1      23.529  16.360 -14.377  1.00  0.00     0.340 C 
ATOM      2  O   UNL     1      23.748  15.461 -15.173  1.00  0.00    -0.246 OA
ENDROOT
BRANCH   1   3
ATOM      3  O   UNL     1      22.370  16.595 -13.718  1.00  0.00    -0.429 OA
BRANCH   3   4
ATOM      4  C   UNL     1      21.662  17.782 -14.106  1.00  0.00     0.345 C 
ATOM      5  C   UNL     1      20.281  16.566 -15.622  1.00  0.00     0.285 C 
ATOM      6  C   UNL     1      19.032  16.765 -14.746  1.00  0.00     0.202 C 
ATOM      7  O   UNL     1      21.193  17.647 -15.458  1.00  0.00    -0.308 OA
ATOM      8  C   UNL     1      19.444  16.924 -13.287  1.00  0.00     0.183 C 
ATOM      9  C   UNL     1      20.478  18.041 -13.150  1.00  0.00     0.215 C 
BRANCH   5  10
ATOM     10  O   UNL     1      19.814  16.497 -16.979  1.00  0.00    -0.353 OA
ATOM     11  C   UNL     1      20.869  16.198 -17.885  1.00  0.00     0.198 C 
ENDBRANCH   5  10
BRANCH   6  12
ATOM     12  O   UNL     1      18.128  15.654 -14.855  1.00  0.00    -0.385 OA
ATOM     13  H   UNL     1      17.493  15.909 -15.555  1.00  0.00     0.211 HD
ENDBRANCH   6  12
BRANCH   8  14
ATOM     14  O   UNL     1      18.297  17.245 -12.480  1.00  0.00    -0.387 OA
ATOM     15  H   UNL     1      18.024  18.139 -12.773  1.00  0.00     0.211 HD
ENDBRANCH   8  14
BRANCH   9  16
ATOM     16  O   UNL     1      20.887  18.130 -11.780  1.00  0.00    -0.384 OA
ATOM     17  H   UNL     1      20.720  17.242 -11.405  1.00  0.00     0.211 HD
ENDBRANCH   9  16
ENDBRANCH   3   4
ENDBRANCH   1   3
BRANCH   1  18
ATOM     18  C   UNL     1      24.555  17.366 -13.996  1.00  0.00     0.067 A 
ATOM     19  C   UNL     1      25.653  16.925 -13.235  1.00  0.00     0.066 A 
ATOM     20  C   UNL     1      24.453  18.717 -14.366  1.00  0.00     0.066 A 
ATOM     21  C   UNL     1      26.635  17.833 -12.855  1.00  0.00     0.162 A 
ATOM     22  C   UNL     1      25.445  19.606 -13.974  1.00  0.00     0.162 A 
ATOM     23  C   UNL     1      26.530  19.169 -13.224  1.00  0.00     0.200 A 
BRANCH  21  24
ATOM     24  O   UNL     1      27.725  17.461 -12.119  1.00  0.00    -0.504 OA
ATOM     25  H   UNL     1      28.124  16.675 -12.536  1.00  0.00     0.293 HD
ENDBRANCH  21  24
BRANCH  22  26
ATOM     26  O   UNL     1      25.345  20.919 -14.331  1.00  0.00    -0.504 OA
ATOM     27  H   UNL     1      24.460  21.195 -14.017  1.00  0.00     0.293 HD
ENDBRANCH  22  26
BRANCH  23  28
ATOM     28  O   UNL     1      27.490  20.072 -12.855  1.00  0.00    -0.502 OA
ATOM     29  H   UNL     1      27.254  20.313 -11.935  1.00  0.00     0.293 HD
ENDBRANCH  23  28
ENDBRANCH   1  18
TORSDOF 10
ENDMDL
MODEL 6
REMARK VINA RESULT:    -6.889      3.094      5.717
REMARK INTER + INTRA:         -10.348
REMARK INTER:                  -9.863
REMARK INTRA:                  -0.485
REMARK UNBOUND:                -0.640
REMARK SMILES CO[C@H]1OC(OC(=O)c2cc(O)c(O)c(O)c2)[C@H](O)[C@@H](O)[C@@H]1O
REMARK SMILES IDX 7 1 8 2 6 3 5 4 3 5 22 6 4 7 20 8 18 9 2 10 1 11 23 12 21 14
REMARK SMILES IDX 19 16 9 18 17 19 10 20 15 21 11 22 13 23 16 24 12 26 14 28
REMARK H PARENT 23 13 21 15 19 17 16 25 12 27 14 29
ROOT
ATOM      1  C   UNL     1      22.168  16.487 -16.641  1.00  0.00     0.340 C 
ATOM      2  O   UNL     1      22.321  17.012 -17.732  1.00  0.00    -0.246 OA
ENDROOT
BRANCH   1   3
ATOM      3  O   UNL     1      22.359  17.063 -15.431  1.00  0.00    -0.429 OA
BRANCH   3   4
ATOM      4  C   UNL     1      21.713  18.331 -15.235  1.00  0.00     0.345 C 
ATOM      5  C   UNL     1      19.617  17.291 -14.778  1.00  0.00     0.285 C 
ATOM      6  C   UNL     1      19.664  17.700 -13.295  1.00  0.00     0.202 C 
ATOM      7  O   UNL     1      20.323  18.227 -15.585  1.00  0.00    -0.308 OA
ATOM      8  C   UNL     1      21.112  17.840 -12.842  1.00  0.00     0.183 C 
ATOM      9  C   UNL     1      21.866  18.793 -13.770  1.00  0.00     0.215 C 
BRANCH   5  10
ATOM     10  O   UNL     1      18.229  17.252 -15.142  1.00  0.00    -0.353 OA
ATOM     11  C   UNL     1      17.854  15.981 -15.660  1.00  0.00     0.198 C 
ENDBRANCH   5  10
BRANCH   6  12
ATOM     12  O   UNL     1      19.006  16.735 -12.459  1.00  0.00    -0.385 OA
ATOM     13  H   UNL     1      19.405  16.850 -11.573  1.00  0.00     0.211 HD
ENDBRANCH   6  12
BRANCH   8  14
ATOM     14  O   UNL     1      21.165  18.353 -11.499  1.00  0.00    -0.387 OA
ATOM     15  H   UNL     1      21.355  19.309 -11.601  1.00  0.00     0.211 HD
ENDBRANCH   8  14
BRANCH   9  16
ATOM     16  O   UNL     1      23.234  18.860 -13.354  1.00  0.00    -0.384 OA
ATOM     17  H   UNL     1      23.370  18.072 -12.791  1.00  0.00     0.211 HD
ENDBRANCH   9  16
ENDBRANCH   3   4
ENDBRANCH   1   3
BRANCH   1  18
ATOM     18  C   UNL     1      21.723  15.077 -16.480  1.00  0.00     0.067 A 
ATOM     19  C   UNL     1      22.295  14.325 -15.438  1.00  0.00     0.066 A 
ATOM     20  C   UNL     1      20.770  14.492 -17.328  1.00  0.00     0.066 A 
ATOM     21  C   UNL     1      21.909  13.002 -15.253  1.00  0.00     0.162 A 
ATOM     22  C   UNL     1      20.401  13.168 -17.125  1.00  0.00     0.162 A 
ATOM     23  C   UNL     1      20.965  12.427 -16.095  1.00  0.00     0.200 A 
BRANCH  21  24
ATOM     24  O   UNL     1      22.429  12.226 -14.256  1.00  0.00    -0.504 OA
ATOM     25  H   UNL     1      23.346  12.513 -14.089  1.00  0.00     0.293 HD
ENDBRANCH  21  24
BRANCH  22  26
ATOM     26  O   UNL     1      19.477  12.598 -17.951  1.00  0.00    -0.504 OA
ATOM     27  H   UNL     1      18.622  12.721 -17.489  1.00  0.00     0.293 HD
ENDBRANCH  22  26
BRANCH  23  28
ATOM     28  O   UNL     1      20.578  11.126 -15.923  1.00  0.00    -0.502 OA
ATOM     29  H   UNL     1      21.271  10.741 -15.347  1.00  0.00     0.293 HD
ENDBRANCH  23  28
ENDBRANCH   1  18
TORSDOF 10
ENDMDL
MODEL 7
REMARK VINA RESULT:    -6.889      1.400      6.572
REMARK INTER + INTRA:         -10.348
REMARK INTER:                  -9.701
REMARK INTRA:                  -0.647
REMARK UNBOUND:                -0.640
REMARK SMILES CO[C@H]1OC(OC(=O)c2cc(O)c(O)c(O)c2)[C@H](O)[C@@H](O)[C@@H]1O
REMARK SMILES IDX 7 1 8 2 6 3 5 4 3 5 22 6 4 7 20 8 18 9 2 10 1 11 23 12 21 14
REMARK SMILES IDX 19 16 9 18 17 19 10 20 15 21 11 22 13 23 16 24 12 26 14 28
REMARK H PARENT 23 13 21 15 19 17 16 25 12 27 14 29
ROOT
ATOM      1  C   UNL     1      23.242  17.081 -15.663  1.00  0.00     0.340 C 
ATOM      2  O   UNL     1      23.341  16.833 -16.854  1.00  0.00    -0.246 OA
ENDROOT
BRANCH   1   3
ATOM      3  O   UNL     1      22.135  16.946 -14.896  1.00  0.00    -0.429 OA
BRANCH   3   4
ATOM      4  C   UNL     1      21.271  18.093 -14.840  1.00  0.00     0.345 C 
ATOM      5  C   UNL     1      19.561  16.970 -16.064  1.00  0.00     0.285 C 
ATOM      6  C   UNL     1      18.639  16.897 -14.834  1.00  0.00     0.202 C 
ATOM      7  O   UNL     1      20.412  18.109 -15.992  1.00  0.00    -0.308 OA
ATOM      8  C   UNL     1      19.476  16.882 -13.561  1.00  0.00     0.183 C 
ATOM      9  C   UNL     1      20.433  18.074 -13.544  1.00  0.00     0.215 C 
BRANCH   5  10
ATOM     10  O   UNL     1      18.698  17.053 -17.210  1.00  0.00    -0.353 OA
ATOM     11  C   UNL     1      18.962  16.013 -18.144  1.00  0.00     0.198 C 
ENDBRANCH   5  10
BRANCH   6  12
ATOM     12  O   UNL     1      17.814  15.721 -14.862  1.00  0.00    -0.385 OA
ATOM     13  H   UNL     1      16.904  16.043 -14.696  1.00  0.00     0.211 HD
ENDBRANCH   6  12
BRANCH   8  14
ATOM     14  O   UNL     1      18.622  16.951 -12.405  1.00  0.00    -0.387 OA
ATOM     15  H   UNL     1      17.716  16.810 -12.751  1.00  0.00     0.211 HD
ENDBRANCH   8  14
BRANCH   9  16
ATOM     16  O   UNL     1      21.244  18.003 -12.366  1.00  0.00    -0.384 OA
ATOM     17  H   UNL     1      21.348  17.047 -12.185  1.00  0.00     0.211 HD
ENDBRANCH   9  16
ENDBRANCH   3   4
ENDBRANCH   1   3
BRANCH   1  18
ATOM     18  C   UNL     1      24.380  17.583 -14.847  1.00  0.00     0.067 A 
ATOM     19  C   UNL     1      25.343  18.382 -15.490  1.00  0.00     0.066 A 
ATOM     20  C   UNL     1      24.514  17.281 -13.483  1.00  0.00     0.066 A 
ATOM     21  C   UNL     1      26.425  18.871 -14.766  1.00  0.00     0.162 A 
ATOM     22  C   UNL     1      25.604  17.779 -12.780  1.00  0.00     0.162 A 
ATOM     23  C   UNL     1      26.553  18.569 -13.415  1.00  0.00     0.200 A 
BRANCH  21  24
ATOM     24  O   UNL     1      27.389  19.653 -15.338  1.00  0.00    -0.504 OA
ATOM     25  H   UNL     1      28.013  19.074 -15.813  1.00  0.00     0.293 HD
ENDBRANCH  21  24
BRANCH  22  26
ATOM     26  O   UNL     1      25.736  17.484 -11.455  1.00  0.00    -0.504 OA
ATOM     27  H   UNL     1      25.992  18.331 -11.036  1.00  0.00     0.293 HD
ENDBRANCH  22  26
BRANCH  23  28
ATOM     28  O   UNL     1      27.614  19.044 -12.693  1.00  0.00    -0.502 OA
ATOM     29  H   UNL     1      27.995  18.246 -12.270  1.00  0.00     0.293 HD
ENDBRANCH  23  28
ENDBRANCH   1  18
TORSDOF 10
ENDMDL
MODEL 8
REMARK VINA RESULT:    -6.806      4.606      8.544
REMARK INTER + INTRA:         -10.232
REMARK INTER:                  -9.477
REMARK INTRA:                  -0.755
REMARK UNBOUND:                -0.640
REMARK SMILES CO[C@H]1OC(OC(=O)c2cc(O)c(O)c(O)c2)[C@H](O)[C@@H](O)[C@@H]1O
REMARK SMILES IDX 7 1 8 2 6 3 5 4 3 5 22 6 4 7 20 8 18 9 2 10 1 11 23 12 21 14
REMARK SMILES IDX 19 16 9 18 17 19 10 20 15 21 11 22 13 23 16 24 12 26 14 28
REMARK H PARENT 23 13 21 15 19 17 16 25 12 27 14 29
ROOT
ATOM      1  C   UNL     1      19.598  15.431 -17.776  1.00  0.00     0.340 C 
ATOM      2  O   UNL     1      19.796  15.499 -18.978  1.00  0.00    -0.246 OA
ENDROOT
BRANCH   1   3
ATOM      3  O   UNL     1      18.621  16.055 -17.077  1.00  0.00    -0.429 OA
BRANCH   3   4
ATOM      4  C   UNL     1      17.305  15.989 -17.650  1.00  0.00     0.345 C 
ATOM      5  C   UNL     1      16.590  14.388 -16.034  1.00  0.00     0.285 C 
ATOM      6  C   UNL     1      15.649  15.399 -15.354  1.00  0.00     0.202 C 
ATOM      7  O   UNL     1      16.740  14.688 -17.418  1.00  0.00    -0.308 OA
ATOM      8  C   UNL     1      16.176  16.815 -15.560  1.00  0.00     0.183 C 
ATOM      9  C   UNL     1      16.399  17.084 -17.048  1.00  0.00     0.215 C 
BRANCH   5  10
ATOM     10  O   UNL     1      15.988  13.096 -15.857  1.00  0.00    -0.353 OA
ATOM     11  C   UNL     1      15.976  12.350 -17.068  1.00  0.00     0.198 C 
ENDBRANCH   5  10
BRANCH   6  12
ATOM     12  O   UNL     1      15.533  15.147 -13.945  1.00  0.00    -0.385 OA
ATOM     13  H   UNL     1      14.712  14.621 -13.847  1.00  0.00     0.211 HD
ENDBRANCH   6  12
BRANCH   8  14
ATOM     14  O   UNL     1      15.235  17.773 -15.046  1.00  0.00    -0.387 OA
ATOM     15  H   UNL     1      14.682  17.270 -14.413  1.00  0.00     0.211 HD
ENDBRANCH   8  14
BRANCH   9  16
ATOM     16  O   UNL     1      16.946  18.398 -17.206  1.00  0.00    -0.384 OA
ATOM     17  H   UNL     1      17.874  18.327 -16.904  1.00  0.00     0.211 HD
ENDBRANCH   9  16
ENDBRANCH   3   4
ENDBRANCH   1   3
BRANCH   1  18
ATOM     18  C   UNL     1      20.437  14.605 -16.867  1.00  0.00     0.067 A 
ATOM     19  C   UNL     1      20.219  13.215 -16.858  1.00  0.00     0.066 A 
ATOM     20  C   UNL     1      21.416  15.168 -16.033  1.00  0.00     0.066 A 
ATOM     21  C   UNL     1      20.979  12.405 -16.021  1.00  0.00     0.162 A 
ATOM     22  C   UNL     1      22.163  14.339 -15.206  1.00  0.00     0.162 A 
ATOM     23  C   UNL     1      21.948  12.967 -15.198  1.00  0.00     0.200 A 
BRANCH  21  24
ATOM     24  O   UNL     1      20.813  11.049 -15.973  1.00  0.00    -0.504 OA
ATOM     25  H   UNL     1      20.301  10.831 -15.173  1.00  0.00     0.293 HD
ENDBRANCH  21  24
BRANCH  22  26
ATOM     26  O   UNL     1      23.113  14.887 -14.394  1.00  0.00    -0.504 OA
ATOM     27  H   UNL     1      23.942  14.424 -14.634  1.00  0.00     0.293 HD
ENDBRANCH  22  26
BRANCH  23  28
ATOM     28  O   UNL     1      22.702  12.180 -14.371  1.00  0.00    -0.502 OA
ATOM     29  H   UNL     1      22.233  11.320 -14.361  1.00  0.00     0.293 HD
ENDBRANCH  23  28
ENDBRANCH   1  18
TORSDOF 10
ENDMDL
MODEL 9
REMARK VINA RESULT:    -6.673      2.545      7.348
REMARK INTER + INTRA:         -10.043
REMARK INTER:                  -9.442
REMARK INTRA:                  -0.601
REMARK UNBOUND:                -0.640
REMARK SMILES CO[C@H]1OC(OC(=O)c2cc(O)c(O)c(O)c2)[C@H](O)[C@@H](O)[C@@H]1O
REMARK SMILES IDX 7 1 8 2 6 3 5 4 3 5 22 6 4 7 20 8 18 9 2 10 1 11 23 12 21 14
REMARK SMILES IDX 19 16 9 18 17 19 10 20 15 21 11 22 13 23 16 24 12 26 14 28
REMARK H PARENT 23 13 21 15 19 17 16 25 12 27 14 29
ROOT
ATOM      1  C   UNL     1      21.162  16.758 -15.360  1.00  0.00     0.340 C 
ATOM      2  O   UNL     1      21.507  16.413 -16.479  1.00  0.00    -0.246 OA
ENDROOT
BRANCH   1   3
ATOM      3  O   UNL     1      19.894  16.860 -14.897  1.00  0.00    -0.429 OA
BRANCH   3   4
ATOM      4  C   UNL     1      19.005  17.666 -15.687  1.00  0.00     0.345 C 
ATOM      5  C   UNL     1      17.378  15.927 -15.786  1.00  0.00     0.285 C 
ATOM      6  C   UNL     1      16.401  16.701 -14.883  1.00  0.00     0.202 C 
ATOM      7  O   UNL     1      18.201  16.821 -16.527  1.00  0.00    -0.308 OA
ATOM      8  C   UNL     1      17.177  17.632 -13.960  1.00  0.00     0.183 C 
ATOM      9  C   UNL     1      18.107  18.530 -14.775  1.00  0.00     0.215 C 
BRANCH   5  10
ATOM     10  O   UNL     1      16.569  15.133 -16.668  1.00  0.00    -0.353 OA
ATOM     11  C   UNL     1      16.844  13.744 -16.529  1.00  0.00     0.198 C 
ENDBRANCH   5  10
BRANCH   6  12
ATOM     12  O   UNL     1      15.602  15.813 -14.085  1.00  0.00    -0.385 OA
ATOM     13  H   UNL     1      16.225  15.128 -13.765  1.00  0.00     0.211 HD
ENDBRANCH   6  12
BRANCH   8  14
ATOM     14  O   UNL     1      16.268  18.457 -13.209  1.00  0.00    -0.387 OA
ATOM     15  H   UNL     1      15.556  18.688 -13.841  1.00  0.00     0.211 HD
ENDBRANCH   8  14
BRANCH   9  16
ATOM     16  O   UNL     1      18.863  19.352 -13.879  1.00  0.00    -0.384 OA
ATOM     17  H   UNL     1      19.153  20.116 -14.417  1.00  0.00     0.211 HD
ENDBRANCH   9  16
ENDBRANCH   3   4
ENDBRANCH   1   3
BRANCH   1  18
ATOM     18  C   UNL     1      22.134  17.126 -14.296  1.00  0.00     0.067 A 
ATOM     19  C   UNL     1      23.474  16.732 -14.469  1.00  0.00     0.066 A 
ATOM     20  C   UNL     1      21.752  17.836 -13.146  1.00  0.00     0.066 A 
ATOM     21  C   UNL     1      24.415  17.053 -13.497  1.00  0.00     0.162 A 
ATOM     22  C   UNL     1      22.710  18.143 -12.188  1.00  0.00     0.162 A 
ATOM     23  C   UNL     1      24.032  17.757 -12.360  1.00  0.00     0.200 A 
BRANCH  21  24
ATOM     24  O   UNL     1      25.730  16.699 -13.613  1.00  0.00    -0.504 OA
ATOM     25  H   UNL     1      26.115  16.650 -12.719  1.00  0.00     0.293 HD
ENDBRANCH  21  24
BRANCH  22  26
ATOM     26  O   UNL     1      22.339  18.831 -11.070  1.00  0.00    -0.504 OA
ATOM     27  H   UNL     1      22.722  19.724 -11.189  1.00  0.00     0.293 HD
ENDBRANCH  22  26
BRANCH  23  28
ATOM     28  O   UNL     1      24.950  18.077 -11.397  1.00  0.00    -0.502 OA
ATOM     29  H   UNL     1      25.809  18.064 -11.867  1.00  0.00     0.293 HD
ENDBRANCH  23  28
ENDBRANCH   1  18
TORSDOF 10
ENDMDL
