MODEL 1
REMARK VINA RESULT:    -7.380      0.000      0.000
REMARK INTER + INTRA:         -11.531
REMARK INTER:                 -10.616
REMARK INTRA:                  -0.915
REMARK UNBOUND:                -0.915
REMARK SMILES O=C([O-])C1=CO[C@@H](O[C@@H]2O[C@H](CO)[C@@H](O)[C@H](O)[C@H]2O)[C@@H]2[C@@H](CO)CC[C@H]12
REMARK SMILES IDX 8 1 7 2 24 3 25 4 21 5 26 6 20 7 4 8 5 9 6 10 22 11 23 12
REMARK SMILES IDX 2 14 1 15 3 16 9 17 18 18 10 19 16 20 11 21 14 22 19 23
REMARK SMILES IDX 17 25 12 27 13 28 15 30
REMARK H PARENT 23 13 19 24 17 26 13 29 15 31
ROOT
ATOM      1  O   UNL     1      20.381  16.232 -15.088  1.00  0.00    -0.310 OA
ENDROOT
BRANCH   1   2
ATOM      2  C   UNL     1      20.223  16.227 -16.515  1.00  0.00     0.313 C 
ATOM      3  C   UNL     1      19.265  13.151 -18.524  1.00  0.00     0.007 C 
ATOM      4  C   UNL     1      18.223  13.145 -17.407  1.00  0.00     0.009 C 
ATOM      5  C   UNL     1      19.883  14.544 -18.466  1.00  0.00     0.024 C 
ATOM      6  C   UNL     1      18.611  14.274 -16.428  1.00  0.00     0.034 C 
ATOM      7  C   UNL     1      19.974  14.781 -16.949  1.00  0.00     0.071 C 
ATOM      8  C   UNL     1      17.594  15.384 -16.389  1.00  0.00     0.013 C 
ATOM      9  C   UNL     1      17.913  16.654 -16.670  1.00  0.00     0.196 C 
ATOM     10  O   UNL     1      19.177  17.113 -16.943  1.00  0.00    -0.472 OA
BRANCH   5  11
ATOM     11  C   UNL     1      21.217  14.613 -19.198  1.00  0.00     0.160 C 
BRANCH  11  12
ATOM     12  O   UNL     1      21.327  13.567 -20.156  1.00  0.00    -0.396 OA
ATOM     13  H   UNL     1      20.684  13.755 -20.863  1.00  0.00     0.210 HD
ENDBRANCH  11  12
ENDBRANCH   5  11
BRANCH   8  14
ATOM     14  C   UNL     1      16.138  15.047 -16.008  1.00  0.00     0.071 C 
ATOM     15  O   UNL     1      15.294  15.120 -16.944  1.00  0.00    -0.545 OA
ATOM     16  O   UNL     1      15.970  14.741 -14.793  1.00  0.00    -0.545 OA
ENDBRANCH   8  14
ENDBRANCH   1   2
BRANCH   1  17
ATOM     17  C   UNL     1      21.339  17.189 -14.650  1.00  0.00     0.286 C 
ATOM     18  C   UNL     1      21.052  17.428 -13.157  1.00  0.00     0.202 C 
ATOM     19  O   UNL     1      22.659  16.667 -14.834  1.00  0.00    -0.341 OA
ATOM     20  C   UNL     1      22.111  18.357 -12.574  1.00  0.00     0.179 C 
ATOM     21  C   UNL     1      23.675  17.568 -14.357  1.00  0.00     0.178 C 
ATOM     22  C   UNL     1      23.514  17.819 -12.853  1.00  0.00     0.177 C 
BRANCH  18  23
ATOM     23  O   UNL     1      19.767  18.028 -12.939  1.00  0.00    -0.385 OA
ATOM     24  H   UNL     1      19.490  18.408 -13.802  1.00  0.00     0.211 HD
ENDBRANCH  18  23
BRANCH  20  25
ATOM     25  O   UNL     1      21.934  18.493 -11.153  1.00  0.00    -0.387 OA
ATOM     26  H   UNL     1      21.523  19.377 -11.046  1.00  0.00     0.211 HD
ENDBRANCH  20  25
BRANCH  21  27
ATOM     27  C   UNL     1      25.033  16.934 -14.674  1.00  0.00     0.191 C 
BRANCH  27  28
ATOM     28  O   UNL     1      25.675  16.535 -13.460  1.00  0.00    -0.394 OA
ATOM     29  H   UNL     1      24.997  16.042 -12.955  1.00  0.00     0.210 HD
ENDBRANCH  27  28
ENDBRANCH  21  27
BRANCH  22  30
ATOM     30  O   UNL     1      24.481  18.757 -12.372  1.00  0.00    -0.387 OA
ATOM     31  H   UNL     1      25.099  18.223 -11.831  1.00  0.00     0.211 HD
ENDBRANCH  22  30
ENDBRANCH   1  17
TORSDOF 10
ENDMDL
MODEL 2
REMARK VINA RESULT:    -7.241      2.707      7.158
REMARK INTER + INTRA:         -11.330
REMARK INTER:                 -10.624
REMARK INTRA:                  -0.706
REMARK UNBOUND:                -0.915
REMARK SMILES O=C([O-])C1=CO[C@@H](O[C@@H]2O[C@H](CO)[C@@H](O)[C@H](O)[C@H]2O)[C@@H]2[C@@H](CO)CC[C@H]12
REMARK SMILES IDX 8 1 7 2 24 3 25 4 21 5 26 6 20 7 4 8 5 9 6 10 22 11 23 12
REMARK SMILES IDX 2 14 1 15 3 16 9 17 18 18 10 19 16 20 11 21 14 22 19 23
REMARK SMILES IDX 17 25 12 27 13 28 15 30
REMARK H PARENT 23 13 19 24 17 26 13 29 15 31
ROOT
ATOM      1  O   UNL     1      23.484  16.186 -15.497  1.00  0.00    -0.310 OA
ENDROOT
BRANCH   1   2
ATOM      2  C   UNL     1      23.915  16.603 -14.193  1.00  0.00     0.313 C 
ATOM      3  C   UNL     1      26.395  19.414 -13.586  1.00  0.00     0.007 C 
ATOM      4  C   UNL     1      25.411  20.056 -14.561  1.00  0.00     0.009 C 
ATOM      5  C   UNL     1      25.684  18.158 -13.092  1.00  0.00     0.024 C 
ATOM      6  C   UNL     1      24.434  18.947 -15.006  1.00  0.00     0.034 C 
ATOM      7  C   UNL     1      25.009  17.656 -14.381  1.00  0.00     0.071 C 
ATOM      8  C   UNL     1      23.022  19.195 -14.542  1.00  0.00     0.013 C 
ATOM      9  C   UNL     1      22.357  18.319 -13.779  1.00  0.00     0.196 C 
ATOM     10  O   UNL     1      22.823  17.087 -13.395  1.00  0.00    -0.472 OA
BRANCH   5  11
ATOM     11  C   UNL     1      26.645  17.165 -12.453  1.00  0.00     0.160 C 
BRANCH  11  12
ATOM     12  O   UNL     1      27.922  17.754 -12.244  1.00  0.00    -0.396 OA
ATOM     13  H   UNL     1      27.913  18.153 -11.355  1.00  0.00     0.210 HD
ENDBRANCH  11  12
ENDBRANCH   5  11
BRANCH   8  14
ATOM     14  C   UNL     1      22.319  20.501 -14.967  1.00  0.00     0.071 C 
ATOM     15  O   UNL     1      22.424  20.809 -16.187  1.00  0.00    -0.545 OA
ATOM     16  O   UNL     1      21.725  21.107 -14.030  1.00  0.00    -0.545 OA
ENDBRANCH   8  14
ENDBRANCH   1   2
BRANCH   1  17
ATOM     17  C   UNL     1      22.282  15.426 -15.456  1.00  0.00     0.286 C 
ATOM     18  C   UNL     1      21.593  15.644 -16.815  1.00  0.00     0.202 C 
ATOM     19  O   UNL     1      22.594  14.043 -15.263  1.00  0.00    -0.341 OA
ATOM     20  C   UNL     1      20.348  14.768 -16.904  1.00  0.00     0.179 C 
ATOM     21  C   UNL     1      21.419  13.211 -15.267  1.00  0.00     0.178 C 
ATOM     22  C   UNL     1      20.693  13.307 -16.614  1.00  0.00     0.177 C 
BRANCH  18  23
ATOM     23  O   UNL     1      21.191  17.007 -17.009  1.00  0.00    -0.385 OA
ATOM     24  H   UNL     1      20.211  16.998 -17.082  1.00  0.00     0.211 HD
ENDBRANCH  18  23
BRANCH  20  25
ATOM     25  O   UNL     1      19.759  14.861 -18.212  1.00  0.00    -0.387 OA
ATOM     26  H   UNL     1      20.435  14.471 -18.808  1.00  0.00     0.211 HD
ENDBRANCH  20  25
BRANCH  21  27
ATOM     27  C   UNL     1      21.873  11.776 -14.981  1.00  0.00     0.191 C 
BRANCH  27  28
ATOM     28  O   UNL     1      22.317  11.670 -13.626  1.00  0.00    -0.394 OA
ATOM     29  H   UNL     1      22.138  12.544 -13.223  1.00  0.00     0.210 HD
ENDBRANCH  27  28
ENDBRANCH  21  27
BRANCH  22  30
ATOM     30  O   UNL     1      19.491  12.532 -16.619  1.00  0.00    -0.387 OA
ATOM     31  H   UNL     1      18.772  13.186 -16.749  1.00  0.00     0.211 HD
ENDBRANCH  22  30
ENDBRANCH   1  17
TORSDOF 10
ENDMDL
MODEL 3
REMARK VINA RESULT:    -7.213      1.383      1.671
REMARK INTER + INTRA:         -11.290
REMARK INTER:                 -10.231
REMARK INTRA:                  -1.059
REMARK UNBOUND:                -0.915
REMARK SMILES O=C([O-])C1=CO[C@@H](O[C@@H]2O[C@H](CO)[C@@H](O)[C@H](O)[C@H]2O)[C@@H]2[C@@H](CO)CC[C@H]12
REMARK SMILES IDX 8 1 7 2 24 3 25 4 21 5 26 6 20 7 4 8 5 9 6 10 22 11 23 12
REMARK SMILES IDX 2 14 1 15 3 16 9 17 18 18 10 19 16 20 11 21 14 22 19 23
REMARK SMILES IDX 17 25 12 27 13 28 15 30
REMARK H PARENT 23 13 19 24 17 26 13 29 15 31
ROOT
ATOM      1  O   UNL     1      21.818  16.125 -15.616  1.00  0.00    -0.310 OA
ENDROOT
BRANCH   1   2
ATOM      2  C   UNL     1      21.693  16.537 -16.985  1.00  0.00     0.313 C 
ATOM      3  C   UNL     1      20.978  14.153 -19.853  1.00  0.00     0.007 C 
ATOM      4  C   UNL     1      19.913  13.759 -18.831  1.00  0.00     0.009 C 
ATOM      5  C   UNL     1      21.506  15.497 -19.360  1.00  0.00     0.024 C 
ATOM      6  C   UNL     1      20.206  14.564 -17.547  1.00  0.00     0.034 C 
ATOM      7  C   UNL     1      21.547  15.276 -17.838  1.00  0.00     0.071 C 
ATOM      8  C   UNL     1      19.120  15.557 -17.222  1.00  0.00     0.013 C 
ATOM      9  C   UNL     1      19.366  16.868 -17.101  1.00  0.00     0.196 C 
ATOM     10  O   UNL     1      20.604  17.453 -17.174  1.00  0.00    -0.472 OA
BRANCH   5  11
ATOM     11  C   UNL     1      22.849  15.852 -19.984  1.00  0.00     0.160 C 
BRANCH  11  12
ATOM     12  O   UNL     1      22.927  15.385 -21.325  1.00  0.00    -0.396 OA
ATOM     13  H   UNL     1      23.811  14.991 -21.441  1.00  0.00     0.210 HD
ENDBRANCH  11  12
ENDBRANCH   5  11
BRANCH   8  14
ATOM     14  C   UNL     1      17.680  15.044 -17.018  1.00  0.00     0.071 C 
ATOM     15  O   UNL     1      16.783  15.654 -17.663  1.00  0.00    -0.545 OA
ATOM     16  O   UNL     1      17.577  14.070 -16.218  1.00  0.00    -0.545 OA
ENDBRANCH   8  14
ENDBRANCH   1   2
BRANCH   1  17
ATOM     17  C   UNL     1      22.431  17.119 -14.802  1.00  0.00     0.286 C 
ATOM     18  C   UNL     1      21.507  17.302 -13.585  1.00  0.00     0.202 C 
ATOM     19  O   UNL     1      23.726  16.672 -14.390  1.00  0.00    -0.341 OA
ATOM     20  C   UNL     1      22.148  18.270 -12.596  1.00  0.00     0.179 C 
ATOM     21  C   UNL     1      24.377  17.612 -13.517  1.00  0.00     0.178 C 
ATOM     22  C   UNL     1      23.562  17.814 -12.234  1.00  0.00     0.177 C 
BRANCH  18  23
ATOM     23  O   UNL     1      20.222  17.828 -13.950  1.00  0.00    -0.385 OA
ATOM     24  H   UNL     1      20.062  17.545 -14.878  1.00  0.00     0.211 HD
ENDBRANCH  18  23
BRANCH  20  25
ATOM     25  O   UNL     1      21.361  18.358 -11.396  1.00  0.00    -0.387 OA
ATOM     26  H   UNL     1      20.443  18.486 -11.719  1.00  0.00     0.211 HD
ENDBRANCH  20  25
BRANCH  21  27
ATOM     27  C   UNL     1      25.772  17.059 -13.207  1.00  0.00     0.191 C 
BRANCH  27  28
ATOM     28  O   UNL     1      26.558  18.062 -12.560  1.00  0.00    -0.394 OA
ATOM     29  H   UNL     1      27.453  17.985 -12.949  1.00  0.00     0.210 HD
ENDBRANCH  27  28
ENDBRANCH  21  27
BRANCH  22  30
ATOM     30  O   UNL     1      24.163  18.788 -11.377  1.00  0.00    -0.387 OA
ATOM     31  H   UNL     1      25.127  18.624 -11.451  1.00  0.00     0.211 HD
ENDBRANCH  22  30
ENDBRANCH   1  17
TORSDOF 10
ENDMDL
MODEL 4
REMARK VINA RESULT:    -7.207      2.326      4.672
REMARK INTER + INTRA:         -11.282
REMARK INTER:                 -10.375
REMARK INTRA:                  -0.907
REMARK UNBOUND:                -0.915
REMARK SMILES O=C([O-])C1=CO[C@@H](O[C@@H]2O[C@H](CO)[C@@H](O)[C@H](O)[C@H]2O)[C@@H]2[C@@H](CO)CC[C@H]12
REMARK SMILES IDX 8 1 7 2 24 3 25 4 21 5 26 6 20 7 4 8 5 9 6 10 22 11 23 12
REMARK SMILES IDX 2 14 1 15 3 16 9 17 18 18 10 19 16 20 11 21 14 22 19 23
REMARK SMILES IDX 17 25 12 27 13 28 15 30
REMARK H PARENT 23 13 19 24 17 26 13 29 15 31
ROOT
ATOM      1  O   UNL     1      23.599  16.362 -15.887  1.00  0.00    -0.310 OA
ENDROOT
BRANCH   1   2
ATOM      2  C   UNL     1      22.566  15.978 -14.968  1.00  0.00     0.313 C 
ATOM      3  C   UNL     1      18.873  16.656 -15.535  1.00  0.00     0.007 C 
ATOM      4  C   UNL     1      19.297  16.042 -16.867  1.00  0.00     0.009 C 
ATOM      5  C   UNL     1      20.020  16.339 -14.582  1.00  0.00     0.024 C 
ATOM      6  C   UNL     1      20.830  15.867 -16.811  1.00  0.00     0.034 C 
ATOM      7  C   UNL     1      21.245  16.550 -15.488  1.00  0.00     0.071 C 
ATOM      8  C   UNL     1      21.250  14.420 -16.833  1.00  0.00     0.013 C 
ATOM      9  C   UNL     1      21.989  13.876 -15.857  1.00  0.00     0.196 C 
ATOM     10  O   UNL     1      22.510  14.555 -14.785  1.00  0.00    -0.472 OA
BRANCH   5  11
ATOM     11  C   UNL     1      19.995  17.216 -13.337  1.00  0.00     0.160 C 
BRANCH  11  12
ATOM     12  O   UNL     1      18.958  16.815 -12.451  1.00  0.00    -0.396 OA
ATOM     13  H   UNL     1      18.124  17.178 -12.801  1.00  0.00     0.210 HD
ENDBRANCH  11  12
ENDBRANCH   5  11
BRANCH   8  14
ATOM     14  C   UNL     1      20.820  13.539 -18.024  1.00  0.00     0.071 C 
ATOM     15  O   UNL     1      21.548  13.612 -19.052  1.00  0.00    -0.545 OA
ATOM     16  O   UNL     1      19.779  12.851 -17.820  1.00  0.00    -0.545 OA
ENDBRANCH   8  14
ENDBRANCH   1   2
BRANCH   1  17
ATOM     17  C   UNL     1      24.781  16.799 -15.226  1.00  0.00     0.286 C 
ATOM     18  C   UNL     1      25.143  18.157 -15.853  1.00  0.00     0.202 C 
ATOM     19  O   UNL     1      24.524  16.940 -13.826  1.00  0.00    -0.341 OA
ATOM     20  C   UNL     1      26.337  18.757 -15.120  1.00  0.00     0.179 C 
ATOM     21  C   UNL     1      25.670  17.434 -13.107  1.00  0.00     0.178 C 
ATOM     22  C   UNL     1      26.071  18.824 -13.616  1.00  0.00     0.177 C 
BRANCH  18  23
ATOM     23  O   UNL     1      25.486  18.043 -17.242  1.00  0.00    -0.385 OA
ATOM     24  H   UNL     1      26.468  18.070 -17.286  1.00  0.00     0.211 HD
ENDBRANCH  18  23
BRANCH  20  25
ATOM     25  O   UNL     1      26.613  20.082 -15.606  1.00  0.00    -0.387 OA
ATOM     26  H   UNL     1      27.566  20.216 -15.413  1.00  0.00     0.211 HD
ENDBRANCH  20  25
BRANCH  21  27
ATOM     27  C   UNL     1      25.296  17.472 -11.622  1.00  0.00     0.191 C 
BRANCH  27  28
ATOM     28  O   UNL     1      24.608  18.690 -11.327  1.00  0.00    -0.394 OA
ATOM     29  H   UNL     1      24.097  18.904 -12.134  1.00  0.00     0.210 HD
ENDBRANCH  27  28
ENDBRANCH  21  27
BRANCH  22  30
ATOM     30  O   UNL     1      27.242  19.307 -12.953  1.00  0.00    -0.387 OA
ATOM     31  H   UNL     1      27.543  20.064 -13.498  1.00  0.00     0.211 HD
ENDBRANCH  22  30
ENDBRANCH   1  17
TORSDOF 10
ENDMDL
MODEL 5
REMARK VINA RESULT:    -6.887      1.818      2.332
REMARK INTER + INTRA:         -10.821
REMARK INTER:                  -9.839
REMARK INTRA:                  -0.982
REMARK UNBOUND:                -0.915
REMARK SMILES O=C([O-])C1=CO[C@@H](O[C@@H]2O[C@H](CO)[C@@H](O)[C@H](O)[C@H]2O)[C@@H]2[C@@H](CO)CC[C@H]12
REMARK SMILES IDX 8 1 7 2 24 3 25 4 21 5 26 6 20 7 4 8 5 9 6 10 22 11 23 12
REMARK SMILES IDX 2 14 1 15 3 16 9 17 18 18 10 19 16 20 11 21 14 22 19 23
REMARK SMILES IDX 17 25 12 27 13 28 15 30
REMARK H PARENT 23 13 19 24 17 26 13 29 15 31
ROOT
ATOM      1  O   UNL     1      18.672  17.166 -15.325  1.00  0.00    -0.310 OA
ENDROOT
BRANCH   1   2
ATOM      2  C   UNL     1      18.700  16.371 -16.520  1.00  0.00     0.313 C 
ATOM      3  C   UNL     1      16.603  13.246 -17.030  1.00  0.00     0.007 C 
ATOM      4  C   UNL     1      15.569  14.251 -16.527  1.00  0.00     0.009 C 
ATOM      5  C   UNL     1      17.812  14.095 -17.409  1.00  0.00     0.024 C 
ATOM      6  C   UNL     1      16.341  15.529 -16.133  1.00  0.00     0.034 C 
ATOM      7  C   UNL     1      17.829  15.137 -16.277  1.00  0.00     0.071 C 
ATOM      8  C   UNL     1      16.001  16.707 -17.009  1.00  0.00     0.013 C 
ATOM      9  C   UNL     1      16.931  17.365 -17.712  1.00  0.00     0.196 C 
ATOM     10  O   UNL     1      18.279  17.117 -17.673  1.00  0.00    -0.472 OA
BRANCH   5  11
ATOM     11  C   UNL     1      19.085  13.266 -17.526  1.00  0.00     0.160 C 
BRANCH  11  12
ATOM     12  O   UNL     1      19.624  12.977 -16.242  1.00  0.00    -0.396 OA
ATOM     13  H   UNL     1      18.894  12.636 -15.693  1.00  0.00     0.210 HD
ENDBRANCH  11  12
ENDBRANCH   5  11
BRANCH   8  14
ATOM     14  C   UNL     1      14.533  17.172 -17.091  1.00  0.00     0.071 C 
ATOM     15  O   UNL     1      14.116  17.852 -16.113  1.00  0.00    -0.545 OA
ATOM     16  O   UNL     1      13.922  16.806 -18.136  1.00  0.00    -0.545 OA
ENDBRANCH   8  14
ENDBRANCH   1   2
BRANCH   1  17
ATOM     17  C   UNL     1      19.965  17.623 -14.946  1.00  0.00     0.286 C 
ATOM     18  C   UNL     1      19.913  17.833 -13.422  1.00  0.00     0.202 C 
ATOM     19  O   UNL     1      20.944  16.636 -15.286  1.00  0.00    -0.341 OA
ATOM     20  C   UNL     1      21.297  18.214 -12.909  1.00  0.00     0.179 C 
ATOM     21  C   UNL     1      22.270  17.017 -14.876  1.00  0.00     0.178 C 
ATOM     22  C   UNL     1      22.339  17.187 -13.354  1.00  0.00     0.177 C 
BRANCH  18  23
ATOM     23  O   UNL     1      18.999  18.875 -13.047  1.00  0.00    -0.385 OA
ATOM     24  H   UNL     1      19.257  19.155 -12.140  1.00  0.00     0.211 HD
ENDBRANCH  18  23
BRANCH  20  25
ATOM     25  O   UNL     1      21.299  18.292 -11.473  1.00  0.00    -0.387 OA
ATOM     26  H   UNL     1      20.655  19.004 -11.270  1.00  0.00     0.211 HD
ENDBRANCH  20  25
BRANCH  21  27
ATOM     27  C   UNL     1      23.229  15.923 -15.358  1.00  0.00     0.191 C 
BRANCH  27  28
ATOM     28  O   UNL     1      24.579  16.378 -15.242  1.00  0.00    -0.394 OA
ATOM     29  H   UNL     1      24.723  16.530 -14.287  1.00  0.00     0.210 HD
ENDBRANCH  27  28
ENDBRANCH  21  27
BRANCH  22  30
ATOM     30  O   UNL     1      23.635  17.620 -12.933  1.00  0.00    -0.387 OA
ATOM     31  H   UNL     1      23.640  17.486 -11.962  1.00  0.00     0.211 HD
ENDBRANCH  22  30
ENDBRANCH   1  17
TORSDOF 10
ENDMDL
MODEL 6
REMARK VINA RESULT:    -6.783      3.705      6.126
REMARK INTER + INTRA:         -10.671
REMARK INTER:                  -9.719
REMARK INTRA:                  -0.953
REMARK UNBOUND:                -0.915
REMARK SMILES O=C([O-])C1=CO[C@@H](O[C@@H]2O[C@H](CO)[C@@H](O)[C@H](O)[C@H]2O)[C@@H]2[C@@H](CO)CC[C@H]12
REMARK SMILES IDX 8 1 7 2 24 3 25 4 21 5 26 6 20 7 4 8 5 9 6 10 22 11 23 12
REMARK SMILES IDX 2 14 1 15 3 16 9 17 18 18 10 19 16 20 11 21 14 22 19 23
REMARK SMILES IDX 17 25 12 27 13 28 15 30
REMARK H PARENT 23 13 19 24 17 26 13 29 15 31
ROOT
ATOM      1  O   UNL     1      18.128  16.001 -18.139  1.00  0.00    -0.310 OA
ENDROOT
BRANCH   1   2
ATOM      2  C   UNL     1      19.396  15.610 -17.590  1.00  0.00     0.313 C 
ATOM      3  C   UNL     1      21.728  13.107 -19.237  1.00  0.00     0.007 C 
ATOM      4  C   UNL     1      21.391  14.045 -20.395  1.00  0.00     0.009 C 
ATOM      5  C   UNL     1      21.272  13.856 -17.989  1.00  0.00     0.024 C 
ATOM      6  C   UNL     1      20.315  15.024 -19.878  1.00  0.00     0.034 C 
ATOM      7  C   UNL     1      19.957  14.493 -18.472  1.00  0.00     0.071 C 
ATOM      8  C   UNL     1      20.806  16.447 -19.815  1.00  0.00     0.013 C 
ATOM      9  C   UNL     1      20.803  17.153 -18.677  1.00  0.00     0.196 C 
ATOM     10  O   UNL     1      20.298  16.721 -17.477  1.00  0.00    -0.472 OA
BRANCH   5  11
ATOM     11  C   UNL     1      21.125  12.934 -16.786  1.00  0.00     0.160 C 
BRANCH  11  12
ATOM     12  O   UNL     1      19.844  12.316 -16.772  1.00  0.00    -0.396 OA
ATOM     13  H   UNL     1      19.315  12.765 -16.088  1.00  0.00     0.210 HD
ENDBRANCH  11  12
ENDBRANCH   5  11
BRANCH   8  14
ATOM     14  C   UNL     1      21.324  17.113 -21.106  1.00  0.00     0.071 C 
ATOM     15  O   UNL     1      22.565  17.344 -21.145  1.00  0.00    -0.545 OA
ATOM     16  O   UNL     1      20.432  17.351 -21.969  1.00  0.00    -0.545 OA
ENDBRANCH   8  14
ENDBRANCH   1   2
BRANCH   1  17
ATOM     17  C   UNL     1      17.081  15.954 -17.176  1.00  0.00     0.286 C 
ATOM     18  C   UNL     1      17.056  14.509 -16.645  1.00  0.00     0.202 C 
ATOM     19  O   UNL     1      17.358  16.876 -16.118  1.00  0.00    -0.341 OA
ATOM     20  C   UNL     1      16.035  14.395 -15.518  1.00  0.00     0.179 C 
ATOM     21  C   UNL     1      16.360  16.835 -15.082  1.00  0.00     0.178 C 
ATOM     22  C   UNL     1      16.304  15.445 -14.438  1.00  0.00     0.177 C 
BRANCH  18  23
ATOM     23  O   UNL     1      16.700  13.561 -17.662  1.00  0.00    -0.385 OA
ATOM     24  H   UNL     1      15.724  13.460 -17.616  1.00  0.00     0.211 HD
ENDBRANCH  18  23
BRANCH  20  25
ATOM     25  O   UNL     1      16.085  13.087 -14.923  1.00  0.00    -0.387 OA
ATOM     26  H   UNL     1      15.751  13.225 -14.011  1.00  0.00     0.211 HD
ENDBRANCH  20  25
BRANCH  21  27
ATOM     27  C   UNL     1      16.726  17.909 -14.052  1.00  0.00     0.191 C 
BRANCH  27  28
ATOM     28  O   UNL     1      17.099  17.290 -12.818  1.00  0.00    -0.394 OA
ATOM     29  H   UNL     1      17.628  16.506 -13.068  1.00  0.00     0.210 HD
ENDBRANCH  27  28
ENDBRANCH  21  27
BRANCH  22  30
ATOM     30  O   UNL     1      15.279  15.367 -13.444  1.00  0.00    -0.387 OA
ATOM     31  H   UNL     1      15.696  15.712 -12.627  1.00  0.00     0.211 HD
ENDBRANCH  22  30
ENDBRANCH   1  17
TORSDOF 10
ENDMDL
MODEL 7
REMARK VINA RESULT:    -6.735      2.413      3.988
REMARK INTER + INTRA:         -10.602
REMARK INTER:                  -9.631
REMARK INTRA:                  -0.971
REMARK UNBOUND:                -0.915
REMARK SMILES O=C([O-])C1=CO[C@@H](O[C@@H]2O[C@H](CO)[C@@H](O)[C@H](O)[C@H]2O)[C@@H]2[C@@H](CO)CC[C@H]12
REMARK SMILES IDX 8 1 7 2 24 3 25 4 21 5 26 6 20 7 4 8 5 9 6 10 22 11 23 12
REMARK SMILES IDX 2 14 1 15 3 16 9 17 18 18 10 19 16 20 11 21 14 22 19 23
REMARK SMILES IDX 17 25 12 27 13 28 15 30
REMARK H PARENT 23 13 19 24 17 26 13 29 15 31
ROOT
ATOM      1  O   UNL     1      21.554  17.873 -16.889  1.00  0.00    -0.310 OA
ENDROOT
BRANCH   1   2
ATOM      2  C   UNL     1      22.128  16.558 -16.955  1.00  0.00     0.313 C 
ATOM      3  C   UNL     1      20.219  13.472 -18.072  1.00  0.00     0.007 C 
ATOM      4  C   UNL     1      19.893  14.473 -19.180  1.00  0.00     0.009 C 
ATOM      5  C   UNL     1      21.396  14.092 -17.328  1.00  0.00     0.024 C 
ATOM      6  C   UNL     1      20.494  15.828 -18.749  1.00  0.00     0.034 C 
ATOM      7  C   UNL     1      21.007  15.580 -17.312  1.00  0.00     0.071 C 
ATOM      8  C   UNL     1      21.609  16.283 -19.655  1.00  0.00     0.013 C 
ATOM      9  C   UNL     1      22.842  16.537 -19.198  1.00  0.00     0.196 C 
ATOM     10  O   UNL     1      23.223  16.496 -17.881  1.00  0.00    -0.472 OA
BRANCH   5  11
ATOM     11  C   UNL     1      21.595  13.476 -15.949  1.00  0.00     0.160 C 
BRANCH  11  12
ATOM     12  O   UNL     1      20.748  14.093 -14.988  1.00  0.00    -0.396 OA
ATOM     13  H   UNL     1      21.157  13.957 -14.115  1.00  0.00     0.210 HD
ENDBRANCH  11  12
ENDBRANCH   5  11
BRANCH   8  14
ATOM     14  C   UNL     1      21.317  16.468 -21.158  1.00  0.00     0.071 C 
ATOM     15  O   UNL     1      22.003  15.755 -21.943  1.00  0.00    -0.545 OA
ATOM     16  O   UNL     1      20.422  17.322 -21.419  1.00  0.00    -0.545 OA
ENDBRANCH   8  14
ENDBRANCH   1   2
BRANCH   1  17
ATOM     17  C   UNL     1      21.515  18.383 -15.561  1.00  0.00     0.286 C 
ATOM     18  C   UNL     1      20.222  17.834 -14.932  1.00  0.00     0.202 C 
ATOM     19  O   UNL     1      22.662  17.929 -14.837  1.00  0.00    -0.341 OA
ATOM     20  C   UNL     1      20.156  18.237 -13.463  1.00  0.00     0.179 C 
ATOM     21  C   UNL     1      22.652  18.368 -13.466  1.00  0.00     0.178 C 
ATOM     22  C   UNL     1      21.428  17.813 -12.729  1.00  0.00     0.177 C 
BRANCH  18  23
ATOM     23  O   UNL     1      19.044  18.334 -15.582  1.00  0.00    -0.385 OA
ATOM     24  H   UNL     1      19.213  19.284 -15.766  1.00  0.00     0.211 HD
ENDBRANCH  18  23
BRANCH  20  25
ATOM     25  O   UNL     1      19.020  17.629 -12.824  1.00  0.00    -0.387 OA
ATOM     26  H   UNL     1      18.493  17.265 -13.567  1.00  0.00     0.211 HD
ENDBRANCH  20  25
BRANCH  21  27
ATOM     27  C   UNL     1      23.956  17.884 -12.822  1.00  0.00     0.191 C 
BRANCH  27  28
ATOM     28  O   UNL     1      24.348  18.788 -11.786  1.00  0.00    -0.394 OA
ATOM     29  H   UNL     1      24.694  18.225 -11.065  1.00  0.00     0.210 HD
ENDBRANCH  27  28
ENDBRANCH  21  27
BRANCH  22  30
ATOM     30  O   UNL     1      21.370  18.284 -11.379  1.00  0.00    -0.387 OA
ATOM     31  H   UNL     1      21.023  17.526 -10.865  1.00  0.00     0.211 HD
ENDBRANCH  22  30
ENDBRANCH   1  17
TORSDOF 10
ENDMDL
MODEL 8
REMARK VINA RESULT:    -6.715      4.837      8.100
REMARK INTER + INTRA:         -10.573
REMARK INTER:                  -9.589
REMARK INTRA:                  -0.984
REMARK UNBOUND:                -0.915
REMARK SMILES O=C([O-])C1=CO[C@@H](O[C@@H]2O[C@H](CO)[C@@H](O)[C@H](O)[C@H]2O)[C@@H]2[C@@H](CO)CC[C@H]12
REMARK SMILES IDX 8 1 7 2 24 3 25 4 21 5 26 6 20 7 4 8 5 9 6 10 22 11 23 12
REMARK SMILES IDX 2 14 1 15 3 16 9 17 18 18 10 19 16 20 11 21 14 22 19 23
REMARK SMILES IDX 17 25 12 27 13 28 15 30
REMARK H PARENT 23 13 19 24 17 26 13 29 15 31
ROOT
ATOM      1  O   UNL     1      26.643  18.676 -16.522  1.00  0.00    -0.310 OA
ENDROOT
BRANCH   1   2
ATOM      2  C   UNL     1      25.231  18.797 -16.293  1.00  0.00     0.313 C 
ATOM      3  C   UNL     1      22.986  15.881 -15.357  1.00  0.00     0.007 C 
ATOM      4  C   UNL     1      24.144  15.725 -14.374  1.00  0.00     0.009 C 
ATOM      5  C   UNL     1      23.146  17.288 -15.922  1.00  0.00     0.024 C 
ATOM      6  C   UNL     1      25.207  16.775 -14.765  1.00  0.00     0.034 C 
ATOM      7  C   UNL     1      24.674  17.388 -16.080  1.00  0.00     0.071 C 
ATOM      8  C   UNL     1      25.398  17.831 -13.709  1.00  0.00     0.013 C 
ATOM      9  C   UNL     1      25.224  19.135 -13.963  1.00  0.00     0.196 C 
ATOM     10  O   UNL     1      24.938  19.672 -15.192  1.00  0.00    -0.472 OA
BRANCH   5  11
ATOM     11  C   UNL     1      22.363  17.483 -17.213  1.00  0.00     0.160 C 
BRANCH  11  12
ATOM     12  O   UNL     1      22.998  16.821 -18.300  1.00  0.00    -0.396 OA
ATOM     13  H   UNL     1      22.971  15.865 -18.109  1.00  0.00     0.210 HD
ENDBRANCH  11  12
ENDBRANCH   5  11
BRANCH   8  14
ATOM     14  C   UNL     1      25.812  17.396 -12.288  1.00  0.00     0.071 C 
ATOM     15  O   UNL     1      24.962  17.607 -11.379  1.00  0.00    -0.545 OA
ATOM     16  O   UNL     1      26.965  16.882 -12.211  1.00  0.00    -0.545 OA
ENDBRANCH   8  14
ENDBRANCH   1   2
BRANCH   1  17
ATOM     17  C   UNL     1      27.195  19.835 -17.137  1.00  0.00     0.286 C 
ATOM     18  C   UNL     1      28.349  19.338 -18.025  1.00  0.00     0.202 C 
ATOM     19  O   UNL     1      26.194  20.485 -17.925  1.00  0.00    -0.341 OA
ATOM     20  C   UNL     1      28.927  20.506 -18.816  1.00  0.00     0.179 C 
ATOM     21  C   UNL     1      26.707  21.637 -18.619  1.00  0.00     0.178 C 
ATOM     22  C   UNL     1      27.825  21.234 -19.587  1.00  0.00     0.177 C 
BRANCH  18  23
ATOM     23  O   UNL     1      29.413  18.752 -17.260  1.00  0.00    -0.385 OA
ATOM     24  H   UNL     1      29.796  18.041 -17.820  1.00  0.00     0.211 HD
ENDBRANCH  18  23
BRANCH  20  25
ATOM     25  O   UNL     1      29.921  20.042 -19.746  1.00  0.00    -0.387 OA
ATOM     26  H   UNL     1      30.482  20.831 -19.912  1.00  0.00     0.211 HD
ENDBRANCH  20  25
BRANCH  21  27
ATOM     27  C   UNL     1      25.533  22.282 -19.363  1.00  0.00     0.191 C 
BRANCH  27  28
ATOM     28  O   UNL     1      25.486  21.796 -20.707  1.00  0.00    -0.394 OA
ATOM     29  H   UNL     1      26.030  22.418 -21.230  1.00  0.00     0.210 HD
ENDBRANCH  27  28
ENDBRANCH  21  27
BRANCH  22  30
ATOM     30  O   UNL     1      28.386  22.373 -20.245  1.00  0.00    -0.387 OA
ATOM     31  H   UNL     1      28.495  23.041 -19.536  1.00  0.00     0.211 HD
ENDBRANCH  22  30
ENDBRANCH   1  17
TORSDOF 10
ENDMDL
MODEL 9
REMARK VINA RESULT:    -6.613      2.193      6.148
REMARK INTER + INTRA:         -10.428
REMARK INTER:                  -9.546
REMARK INTRA:                  -0.882
REMARK UNBOUND:                -0.915
REMARK SMILES O=C([O-])C1=CO[C@@H](O[C@@H]2O[C@H](CO)[C@@H](O)[C@H](O)[C@H]2O)[C@@H]2[C@@H](CO)CC[C@H]12
REMARK SMILES IDX 8 1 7 2 24 3 25 4 21 5 26 6 20 7 4 8 5 9 6 10 22 11 23 12
REMARK SMILES IDX 2 14 1 15 3 16 9 17 18 18 10 19 16 20 11 21 14 22 19 23
REMARK SMILES IDX 17 25 12 27 13 28 15 30
REMARK H PARENT 23 13 19 24 17 26 13 29 15 31
ROOT
ATOM      1  O   UNL     1      19.949  16.618 -15.234  1.00  0.00    -0.310 OA
ENDROOT
BRANCH   1   2
ATOM      2  C   UNL     1      20.442  15.525 -16.025  1.00  0.00     0.313 C 
ATOM      3  C   UNL     1      22.395  15.964 -19.251  1.00  0.00     0.007 C 
ATOM      4  C   UNL     1      23.123  16.913 -18.301  1.00  0.00     0.009 C 
ATOM      5  C   UNL     1      21.538  15.091 -18.342  1.00  0.00     0.024 C 
ATOM      6  C   UNL     1      22.315  16.937 -16.986  1.00  0.00     0.034 C 
ATOM      7  C   UNL     1      21.046  16.113 -17.302  1.00  0.00     0.071 C 
ATOM      8  C   UNL     1      23.073  16.347 -15.826  1.00  0.00     0.013 C 
ATOM      9  C   UNL     1      22.604  15.310 -15.120  1.00  0.00     0.196 C 
ATOM     10  O   UNL     1      21.381  14.717 -15.299  1.00  0.00    -0.472 OA
BRANCH   5  11
ATOM     11  C   UNL     1      20.428  14.380 -19.104  1.00  0.00     0.160 C 
BRANCH  11  12
ATOM     12  O   UNL     1      20.962  13.570 -20.144  1.00  0.00    -0.396 OA
ATOM     13  H   UNL     1      21.171  12.702 -19.754  1.00  0.00     0.210 HD
ENDBRANCH  11  12
ENDBRANCH   5  11
BRANCH   8  14
ATOM     14  C   UNL     1      24.432  16.963 -15.436  1.00  0.00     0.071 C 
ATOM     15  O   UNL     1      25.372  16.142 -15.243  1.00  0.00    -0.545 OA
ATOM     16  O   UNL     1      24.434  18.224 -15.353  1.00  0.00    -0.545 OA
ENDBRANCH   8  14
ENDBRANCH   1   2
BRANCH   1  17
ATOM     17  C   UNL     1      18.533  16.595 -15.097  1.00  0.00     0.286 C 
ATOM     18  C   UNL     1      18.197  17.596 -13.977  1.00  0.00     0.202 C 
ATOM     19  O   UNL     1      17.924  16.990 -16.329  1.00  0.00    -0.341 OA
ATOM     20  C   UNL     1      16.684  17.723 -13.841  1.00  0.00     0.179 C 
ATOM     21  C   UNL     1      16.488  17.040 -16.237  1.00  0.00     0.178 C 
ATOM     22  C   UNL     1      16.047  18.067 -15.188  1.00  0.00     0.177 C 
BRANCH  18  23
ATOM     23  O   UNL     1      18.724  17.190 -12.706  1.00  0.00    -0.385 OA
ATOM     24  H   UNL     1      19.514  16.637 -12.899  1.00  0.00     0.211 HD
ENDBRANCH  18  23
BRANCH  20  25
ATOM     25  O   UNL     1      16.349  18.747 -12.888  1.00  0.00    -0.387 OA
ATOM     26  H   UNL     1      17.070  19.406 -12.979  1.00  0.00     0.211 HD
ENDBRANCH  20  25
BRANCH  21  27
ATOM     27  C   UNL     1      15.954  17.402 -17.627  1.00  0.00     0.191 C 
BRANCH  27  28
ATOM     28  O   UNL     1      14.640  16.864 -17.796  1.00  0.00    -0.394 OA
ATOM     29  H   UNL     1      14.762  15.897 -17.884  1.00  0.00     0.210 HD
ENDBRANCH  27  28
ENDBRANCH  21  27
BRANCH  22  30
ATOM     30  O   UNL     1      14.625  18.091 -15.042  1.00  0.00    -0.387 OA
ATOM     31  H   UNL     1      14.279  17.866 -15.931  1.00  0.00     0.211 HD
ENDBRANCH  22  30
ENDBRANCH   1  17
TORSDOF 10
ENDMDL
