MODEL 1
REMARK VINA RESULT:    -7.384      0.000      0.000
REMARK INTER + INTRA:         -11.525
REMARK INTER:                 -10.622
REMARK INTRA:                  -0.903
REMARK UNBOUND:                -0.903
REMARK SMILES O=C([O-])C1=CO[C@@H](O[C@@H]2O[C@H](CO)[C@@H](O)[C@H](O)[C@H]2O)[C@@H]2[C@@H](CO)CC[C@H]12
REMARK SMILES IDX 8 1 7 2 24 3 25 4 21 5 26 6 20 7 4 8 5 9 6 10 22 11 23 12
REMARK SMILES IDX 2 14 1 15 3 16 9 17 18 18 10 19 16 20 11 21 14 22 19 23
REMARK SMILES IDX 17 25 12 27 13 28 15 30
REMARK H PARENT 23 13 19 24 17 26 13 29 15 31
ROOT
ATOM      1  O   UNL     1      20.467  16.200 -15.082  1.00  0.00    -0.310 OA
ENDROOT
BRANCH   1   2
ATOM      2  C   UNL     1      20.288  16.210 -16.507  1.00  0.00     0.313 C 
ATOM      3  C   UNL     1      19.241  13.170 -18.527  1.00  0.00     0.007 C 
ATOM      4  C   UNL     1      18.216  13.174 -17.395  1.00  0.00     0.009 C 
ATOM      5  C   UNL     1      19.888  14.550 -18.467  1.00  0.00     0.024 C 
ATOM      6  C   UNL     1      18.639  14.287 -16.412  1.00  0.00     0.034 C 
ATOM      7  C   UNL     1      20.005  14.773 -16.949  1.00  0.00     0.071 C 
ATOM      8  C   UNL     1      17.645  15.417 -16.350  1.00  0.00     0.013 C 
ATOM      9  C   UNL     1      17.985  16.683 -16.624  1.00  0.00     0.196 C 
ATOM     10  O   UNL     1      19.253  17.120 -16.912  1.00  0.00    -0.472 OA
BRANCH   5  11
ATOM     11  C   UNL     1      21.211  14.600 -19.218  1.00  0.00     0.160 C 
BRANCH  11  12
ATOM     12  O   UNL     1      21.244  13.630 -20.257  1.00  0.00    -0.396 OA
ATOM     13  H   UNL     1      21.580  14.076 -21.056  1.00  0.00     0.210 HD
ENDBRANCH  11  12
ENDBRANCH   5  11
BRANCH   8  14
ATOM     14  C   UNL     1      16.188  15.104 -15.950  1.00  0.00     0.071 C 
ATOM     15  O   UNL     1      15.342  15.139 -16.886  1.00  0.00    -0.545 OA
ATOM     16  O   UNL     1      16.022  14.855 -14.722  1.00  0.00    -0.545 OA
ENDBRANCH   8  14
ENDBRANCH   1   2
BRANCH   1  17
ATOM     17  C   UNL     1      21.412  17.170 -14.646  1.00  0.00     0.286 C 
ATOM     18  C   UNL     1      21.112  17.417 -13.156  1.00  0.00     0.202 C 
ATOM     19  O   UNL     1      22.738  16.661 -14.817  1.00  0.00    -0.341 OA
ATOM     20  C   UNL     1      22.157  18.362 -12.574  1.00  0.00     0.179 C 
ATOM     21  C   UNL     1      23.741  17.577 -14.341  1.00  0.00     0.178 C 
ATOM     22  C   UNL     1      23.569  17.837 -12.840  1.00  0.00     0.177 C 
BRANCH  18  23
ATOM     23  O   UNL     1      19.819  18.005 -12.951  1.00  0.00    -0.385 OA
ATOM     24  H   UNL     1      19.200  17.521 -13.540  1.00  0.00     0.211 HD
ENDBRANCH  18  23
BRANCH  20  25
ATOM     25  O   UNL     1      21.971  18.506 -11.155  1.00  0.00    -0.387 OA
ATOM     26  H   UNL     1      21.255  17.870 -10.941  1.00  0.00     0.211 HD
ENDBRANCH  20  25
BRANCH  21  27
ATOM     27  C   UNL     1      25.108  16.954 -14.644  1.00  0.00     0.191 C 
BRANCH  27  28
ATOM     28  O   UNL     1      25.747  16.572 -13.424  1.00  0.00    -0.394 OA
ATOM     29  H   UNL     1      25.768  17.382 -12.875  1.00  0.00     0.210 HD
ENDBRANCH  27  28
ENDBRANCH  21  27
BRANCH  22  30
ATOM     30  O   UNL     1      24.522  18.788 -12.360  1.00  0.00    -0.387 OA
ATOM     31  H   UNL     1      24.346  19.601 -12.878  1.00  0.00     0.211 HD
ENDBRANCH  22  30
ENDBRANCH   1  17
TORSDOF 10
ENDMDL
MODEL 2
REMARK VINA RESULT:    -7.249      2.673      7.134
REMARK INTER + INTRA:         -11.330
REMARK INTER:                 -10.613
REMARK INTRA:                  -0.718
REMARK UNBOUND:                -0.903
REMARK SMILES O=C([O-])C1=CO[C@@H](O[C@@H]2O[C@H](CO)[C@@H](O)[C@H](O)[C@H]2O)[C@@H]2[C@@H](CO)CC[C@H]12
REMARK SMILES IDX 8 1 7 2 24 3 25 4 21 5 26 6 20 7 4 8 5 9 6 10 22 11 23 12
REMARK SMILES IDX 2 14 1 15 3 16 9 17 18 18 10 19 16 20 11 21 14 22 19 23
REMARK SMILES IDX 17 25 12 27 13 28 15 30
REMARK H PARENT 23 13 19 24 17 26 13 29 15 31
ROOT
ATOM      1  O   UNL     1      23.449  16.152 -15.521  1.00  0.00    -0.310 OA
ENDROOT
BRANCH   1   2
ATOM      2  C   UNL     1      23.872  16.574 -14.215  1.00  0.00     0.313 C 
ATOM      3  C   UNL     1      26.282  19.443 -13.598  1.00  0.00     0.007 C 
ATOM      4  C   UNL     1      25.280  20.065 -14.569  1.00  0.00     0.009 C 
ATOM      5  C   UNL     1      25.604  18.167 -13.110  1.00  0.00     0.024 C 
ATOM      6  C   UNL     1      24.330  18.934 -15.018  1.00  0.00     0.034 C 
ATOM      7  C   UNL     1      24.939  17.655 -14.400  1.00  0.00     0.071 C 
ATOM      8  C   UNL     1      22.914  19.145 -14.550  1.00  0.00     0.013 C 
ATOM      9  C   UNL     1      22.272  18.248 -13.790  1.00  0.00     0.196 C 
ATOM     10  O   UNL     1      22.770  17.026 -13.413  1.00  0.00    -0.472 OA
BRANCH   5  11
ATOM     11  C   UNL     1      26.591  17.195 -12.478  1.00  0.00     0.160 C 
BRANCH  11  12
ATOM     12  O   UNL     1      27.857  17.812 -12.279  1.00  0.00    -0.396 OA
ATOM     13  H   UNL     1      27.791  18.349 -11.469  1.00  0.00     0.210 HD
ENDBRANCH  11  12
ENDBRANCH   5  11
BRANCH   8  14
ATOM     14  C   UNL     1      22.177  20.434 -14.967  1.00  0.00     0.071 C 
ATOM     15  O   UNL     1      21.691  21.118 -14.023  1.00  0.00    -0.545 OA
ATOM     16  O   UNL     1      22.147  20.643 -16.213  1.00  0.00    -0.545 OA
ENDBRANCH   8  14
ENDBRANCH   1   2
BRANCH   1  17
ATOM     17  C   UNL     1      22.251  15.385 -15.483  1.00  0.00     0.286 C 
ATOM     18  C   UNL     1      21.566  15.598 -16.845  1.00  0.00     0.202 C 
ATOM     19  O   UNL     1      22.570  14.004 -15.288  1.00  0.00    -0.341 OA
ATOM     20  C   UNL     1      20.327  14.716 -16.938  1.00  0.00     0.179 C 
ATOM     21  C   UNL     1      21.400  13.166 -15.296  1.00  0.00     0.178 C 
ATOM     22  C   UNL     1      20.679  13.257 -16.646  1.00  0.00     0.177 C 
BRANCH  18  23
ATOM     23  O   UNL     1      21.157  16.959 -17.043  1.00  0.00    -0.385 OA
ATOM     24  H   UNL     1      20.316  16.924 -17.550  1.00  0.00     0.211 HD
ENDBRANCH  18  23
BRANCH  20  25
ATOM     25  O   UNL     1      19.743  14.804 -18.250  1.00  0.00    -0.387 OA
ATOM     26  H   UNL     1      19.583  15.764 -18.377  1.00  0.00     0.211 HD
ENDBRANCH  20  25
BRANCH  21  27
ATOM     27  C   UNL     1      21.861  11.734 -15.007  1.00  0.00     0.191 C 
BRANCH  27  28
ATOM     28  O   UNL     1      22.322  11.638 -13.657  1.00  0.00    -0.394 OA
ATOM     29  H   UNL     1      21.563  11.292 -13.145  1.00  0.00     0.210 HD
ENDBRANCH  27  28
ENDBRANCH  21  27
BRANCH  22  30
ATOM     30  O   UNL     1      19.481  12.474 -16.655  1.00  0.00    -0.387 OA
ATOM     31  H   UNL     1      19.387  12.152 -15.734  1.00  0.00     0.211 HD
ENDBRANCH  22  30
ENDBRANCH   1  17
TORSDOF 10
ENDMDL
MODEL 3
REMARK VINA RESULT:    -7.243      1.353      1.721
REMARK INTER + INTRA:         -11.322
REMARK INTER:                 -10.283
REMARK INTRA:                  -1.039
REMARK UNBOUND:                -0.903
REMARK SMILES O=C([O-])C1=CO[C@@H](O[C@@H]2O[C@H](CO)[C@@H](O)[C@H](O)[C@H]2O)[C@@H]2[C@@H](CO)CC[C@H]12
REMARK SMILES IDX 8 1 7 2 24 3 25 4 21 5 26 6 20 7 4 8 5 9 6 10 22 11 23 12
REMARK SMILES IDX 2 14 1 15 3 16 9 17 18 18 10 19 16 20 11 21 14 22 19 23
REMARK SMILES IDX 17 25 12 27 13 28 15 30
REMARK H PARENT 23 13 19 24 17 26 13 29 15 31
ROOT
ATOM      1  O   UNL     1      21.825  16.059 -15.636  1.00  0.00    -0.310 OA
ENDROOT
BRANCH   1   2
ATOM      2  C   UNL     1      21.688  16.464 -17.006  1.00  0.00     0.313 C 
ATOM      3  C   UNL     1      20.967  14.062 -19.857  1.00  0.00     0.007 C 
ATOM      4  C   UNL     1      19.913  13.666 -18.827  1.00  0.00     0.009 C 
ATOM      5  C   UNL     1      21.490  15.411 -19.375  1.00  0.00     0.024 C 
ATOM      6  C   UNL     1      20.209  14.478 -17.548  1.00  0.00     0.034 C 
ATOM      7  C   UNL     1      21.543  15.197 -17.852  1.00  0.00     0.071 C 
ATOM      8  C   UNL     1      19.119  15.466 -17.221  1.00  0.00     0.013 C 
ATOM      9  C   UNL     1      19.357  16.779 -17.107  1.00  0.00     0.196 C 
ATOM     10  O   UNL     1      20.591  17.372 -17.192  1.00  0.00    -0.472 OA
BRANCH   5  11
ATOM     11  C   UNL     1      22.826  15.772 -20.010  1.00  0.00     0.160 C 
BRANCH  11  12
ATOM     12  O   UNL     1      22.934  15.222 -21.317  1.00  0.00    -0.396 OA
ATOM     13  H   UNL     1      23.723  15.618 -21.731  1.00  0.00     0.210 HD
ENDBRANCH  11  12
ENDBRANCH   5  11
BRANCH   8  14
ATOM     14  C   UNL     1      17.684  14.944 -17.003  1.00  0.00     0.071 C 
ATOM     15  O   UNL     1      17.577  13.920 -16.272  1.00  0.00    -0.545 OA
ATOM     16  O   UNL     1      16.787  15.610 -17.594  1.00  0.00    -0.545 OA
ENDBRANCH   8  14
ENDBRANCH   1   2
BRANCH   1  17
ATOM     17  C   UNL     1      22.427  17.065 -14.829  1.00  0.00     0.286 C 
ATOM     18  C   UNL     1      21.499  17.250 -13.615  1.00  0.00     0.202 C 
ATOM     19  O   UNL     1      23.726  16.633 -14.412  1.00  0.00    -0.341 OA
ATOM     20  C   UNL     1      22.130  18.231 -12.633  1.00  0.00     0.179 C 
ATOM     21  C   UNL     1      24.367  17.586 -13.544  1.00  0.00     0.178 C 
ATOM     22  C   UNL     1      23.547  17.791 -12.265  1.00  0.00     0.177 C 
BRANCH  18  23
ATOM     23  O   UNL     1      20.211  17.761 -13.987  1.00  0.00    -0.385 OA
ATOM     24  H   UNL     1      19.549  17.138 -13.613  1.00  0.00     0.211 HD
ENDBRANCH  18  23
BRANCH  20  25
ATOM     25  O   UNL     1      21.340  18.322 -11.435  1.00  0.00    -0.387 OA
ATOM     26  H   UNL     1      20.417  18.201 -11.745  1.00  0.00     0.211 HD
ENDBRANCH  20  25
BRANCH  21  27
ATOM     27  C   UNL     1      25.766  17.048 -13.229  1.00  0.00     0.191 C 
BRANCH  27  28
ATOM     28  O   UNL     1      26.523  18.044 -12.536  1.00  0.00    -0.394 OA
ATOM     29  H   UNL     1      27.333  18.174 -13.069  1.00  0.00     0.210 HD
ENDBRANCH  27  28
ENDBRANCH  21  27
BRANCH  22  30
ATOM     30  O   UNL     1      24.139  18.777 -11.415  1.00  0.00    -0.387 OA
ATOM     31  H   UNL     1      23.603  19.585 -11.560  1.00  0.00     0.211 HD
ENDBRANCH  22  30
ENDBRANCH   1  17
TORSDOF 10
ENDMDL
MODEL 4
REMARK VINA RESULT:    -7.208      2.328      4.658
REMARK INTER + INTRA:         -11.271
REMARK INTER:                 -10.354
REMARK INTRA:                  -0.916
REMARK UNBOUND:                -0.903
REMARK SMILES O=C([O-])C1=CO[C@@H](O[C@@H]2O[C@H](CO)[C@@H](O)[C@H](O)[C@H]2O)[C@@H]2[C@@H](CO)CC[C@H]12
REMARK SMILES IDX 8 1 7 2 24 3 25 4 21 5 26 6 20 7 4 8 5 9 6 10 22 11 23 12
REMARK SMILES IDX 2 14 1 15 3 16 9 17 18 18 10 19 16 20 11 21 14 22 19 23
REMARK SMILES IDX 17 25 12 27 13 28 15 30
REMARK H PARENT 23 13 19 24 17 26 13 29 15 31
ROOT
ATOM      1  O   UNL     1      23.615  16.356 -15.902  1.00  0.00    -0.310 OA
ENDROOT
BRANCH   1   2
ATOM      2  C   UNL     1      22.578  15.994 -14.978  1.00  0.00     0.313 C 
ATOM      3  C   UNL     1      18.886  16.640 -15.585  1.00  0.00     0.007 C 
ATOM      4  C   UNL     1      19.320  15.991 -16.897  1.00  0.00     0.009 C 
ATOM      5  C   UNL     1      20.029  16.355 -14.616  1.00  0.00     0.024 C 
ATOM      6  C   UNL     1      20.853  15.823 -16.827  1.00  0.00     0.034 C 
ATOM      7  C   UNL     1      21.258  16.545 -15.522  1.00  0.00     0.071 C 
ATOM      8  C   UNL     1      21.279  14.378 -16.805  1.00  0.00     0.013 C 
ATOM      9  C   UNL     1      22.014  13.865 -15.810  1.00  0.00     0.196 C 
ATOM     10  O   UNL     1      22.527  14.576 -14.754  1.00  0.00    -0.472 OA
BRANCH   5  11
ATOM     11  C   UNL     1      19.993  17.268 -13.398  1.00  0.00     0.160 C 
BRANCH  11  12
ATOM     12  O   UNL     1      19.006  16.839 -12.469  1.00  0.00    -0.396 OA
ATOM     13  H   UNL     1      19.385  16.947 -11.577  1.00  0.00     0.210 HD
ENDBRANCH  11  12
ENDBRANCH   5  11
BRANCH   8  14
ATOM     14  C   UNL     1      20.859  13.461 -17.972  1.00  0.00     0.071 C 
ATOM     15  O   UNL     1      21.582  13.521 -19.005  1.00  0.00    -0.545 OA
ATOM     16  O   UNL     1      19.830  12.762 -17.748  1.00  0.00    -0.545 OA
ENDBRANCH   8  14
ENDBRANCH   1   2
BRANCH   1  17
ATOM     17  C   UNL     1      24.796  16.802 -15.247  1.00  0.00     0.286 C 
ATOM     18  C   UNL     1      25.151  18.157 -15.885  1.00  0.00     0.202 C 
ATOM     19  O   UNL     1      24.543  16.953 -13.847  1.00  0.00    -0.341 OA
ATOM     20  C   UNL     1      26.345  18.768 -15.159  1.00  0.00     0.179 C 
ATOM     21  C   UNL     1      25.688  17.457 -13.135  1.00  0.00     0.178 C 
ATOM     22  C   UNL     1      26.081  18.845 -13.655  1.00  0.00     0.177 C 
BRANCH  18  23
ATOM     23  O   UNL     1      25.492  18.034 -17.274  1.00  0.00    -0.385 OA
ATOM     24  H   UNL     1      25.799  17.108 -17.401  1.00  0.00     0.211 HD
ENDBRANCH  18  23
BRANCH  20  25
ATOM     25  O   UNL     1      26.614  20.090 -15.656  1.00  0.00    -0.387 OA
ATOM     26  H   UNL     1      27.063  20.541 -14.909  1.00  0.00     0.211 HD
ENDBRANCH  20  25
BRANCH  21  27
ATOM     27  C   UNL     1      25.316  17.505 -11.649  1.00  0.00     0.191 C 
BRANCH  27  28
ATOM     28  O   UNL     1      24.652  18.736 -11.356  1.00  0.00    -0.394 OA
ATOM     29  H   UNL     1      24.018  18.872 -12.089  1.00  0.00     0.210 HD
ENDBRANCH  27  28
ENDBRANCH  21  27
BRANCH  22  30
ATOM     30  O   UNL     1      27.252  19.338 -12.998  1.00  0.00    -0.387 OA
ATOM     31  H   UNL     1      26.939  20.103 -12.472  1.00  0.00     0.211 HD
ENDBRANCH  22  30
ENDBRANCH   1  17
TORSDOF 10
ENDMDL
MODEL 5
REMARK VINA RESULT:    -6.899      2.353      3.981
REMARK INTER + INTRA:         -10.826
REMARK INTER:                  -9.856
REMARK INTRA:                  -0.970
REMARK UNBOUND:                -0.903
REMARK SMILES O=C([O-])C1=CO[C@@H](O[C@@H]2O[C@H](CO)[C@@H](O)[C@H](O)[C@H]2O)[C@@H]2[C@@H](CO)CC[C@H]12
REMARK SMILES IDX 8 1 7 2 24 3 25 4 21 5 26 6 20 7 4 8 5 9 6 10 22 11 23 12
REMARK SMILES IDX 2 14 1 15 3 16 9 17 18 18 10 19 16 20 11 21 14 22 19 23
REMARK SMILES IDX 17 25 12 27 13 28 15 30
REMARK H PARENT 23 13 19 24 17 26 13 29 15 31
ROOT
ATOM      1  O   UNL     1      21.340  17.641 -16.876  1.00  0.00    -0.310 OA
ENDROOT
BRANCH   1   2
ATOM      2  C   UNL     1      21.975  16.354 -16.896  1.00  0.00     0.313 C 
ATOM      3  C   UNL     1      20.292  13.185 -18.137  1.00  0.00     0.007 C 
ATOM      4  C   UNL     1      20.003  14.169 -19.269  1.00  0.00     0.009 C 
ATOM      5  C   UNL     1      21.384  13.857 -17.312  1.00  0.00     0.024 C 
ATOM      6  C   UNL     1      20.510  15.550 -18.801  1.00  0.00     0.034 C 
ATOM      7  C   UNL     1      20.928  15.326 -17.330  1.00  0.00     0.071 C 
ATOM      8  C   UNL     1      21.666  16.055 -19.626  1.00  0.00     0.013 C 
ATOM      9  C   UNL     1      22.849  16.365 -19.081  1.00  0.00     0.196 C 
ATOM     10  O   UNL     1      23.137  16.341 -17.740  1.00  0.00    -0.472 OA
BRANCH   5  11
ATOM     11  C   UNL     1      21.510  13.251 -15.921  1.00  0.00     0.160 C 
BRANCH  11  12
ATOM     12  O   UNL     1      20.874  11.981 -15.858  1.00  0.00    -0.396 OA
ATOM     13  H   UNL     1      20.155  12.051 -15.204  1.00  0.00     0.210 HD
ENDBRANCH  11  12
ENDBRANCH   5  11
BRANCH   8  14
ATOM     14  C   UNL     1      21.475  16.226 -21.146  1.00  0.00     0.071 C 
ATOM     15  O   UNL     1      20.602  17.068 -21.499  1.00  0.00    -0.545 OA
ATOM     16  O   UNL     1      22.219  15.491 -21.856  1.00  0.00    -0.545 OA
ENDBRANCH   8  14
ENDBRANCH   1   2
BRANCH   1  17
ATOM     17  C   UNL     1      21.294  18.205 -15.571  1.00  0.00     0.286 C 
ATOM     18  C   UNL     1      20.049  17.607 -14.891  1.00  0.00     0.202 C 
ATOM     19  O   UNL     1      22.480  17.854 -14.853  1.00  0.00    -0.341 OA
ATOM     20  C   UNL     1      19.986  18.069 -13.440  1.00  0.00     0.179 C 
ATOM     21  C   UNL     1      22.469  18.350 -13.501  1.00  0.00     0.178 C 
ATOM     22  C   UNL     1      21.295  17.754 -12.715  1.00  0.00     0.177 C 
BRANCH  18  23
ATOM     23  O   UNL     1      18.831  18.006 -15.537  1.00  0.00    -0.385 OA
ATOM     24  H   UNL     1      18.127  17.417 -15.185  1.00  0.00     0.211 HD
ENDBRANCH  18  23
BRANCH  20  25
ATOM     25  O   UNL     1      18.902  17.421 -12.752  1.00  0.00    -0.387 OA
ATOM     26  H   UNL     1      18.284  17.160 -13.469  1.00  0.00     0.211 HD
ENDBRANCH  20  25
BRANCH  21  27
ATOM     27  C   UNL     1      23.811  17.974 -12.866  1.00  0.00     0.191 C 
BRANCH  27  28
ATOM     28  O   UNL     1      23.956  18.643 -11.610  1.00  0.00    -0.394 OA
ATOM     29  H   UNL     1      24.613  19.351 -11.765  1.00  0.00     0.210 HD
ENDBRANCH  27  28
ENDBRANCH  21  27
BRANCH  22  30
ATOM     30  O   UNL     1      21.233  18.279 -11.386  1.00  0.00    -0.387 OA
ATOM     31  H   UNL     1      21.536  17.544 -10.813  1.00  0.00     0.211 HD
ENDBRANCH  22  30
ENDBRANCH   1  17
TORSDOF 10
ENDMDL
MODEL 6
REMARK VINA RESULT:    -6.896      1.568      1.835
REMARK INTER + INTRA:         -10.823
REMARK INTER:                  -9.841
REMARK INTRA:                  -0.982
REMARK UNBOUND:                -0.903
REMARK SMILES O=C([O-])C1=CO[C@@H](O[C@@H]2O[C@H](CO)[C@@H](O)[C@H](O)[C@H]2O)[C@@H]2[C@@H](CO)CC[C@H]12
REMARK SMILES IDX 8 1 7 2 24 3 25 4 21 5 26 6 20 7 4 8 5 9 6 10 22 11 23 12
REMARK SMILES IDX 2 14 1 15 3 16 9 17 18 18 10 19 16 20 11 21 14 22 19 23
REMARK SMILES IDX 17 25 12 27 13 28 15 30
REMARK H PARENT 23 13 19 24 17 26 13 29 15 31
ROOT
ATOM      1  O   UNL     1      19.214  16.516 -15.003  1.00  0.00    -0.310 OA
ENDROOT
BRANCH   1   2
ATOM      2  C   UNL     1      19.252  15.913 -16.305  1.00  0.00     0.313 C 
ATOM      3  C   UNL     1      17.037  13.013 -17.354  1.00  0.00     0.007 C 
ATOM      4  C   UNL     1      16.030  13.980 -16.735  1.00  0.00     0.009 C 
ATOM      5  C   UNL     1      18.296  13.847 -17.561  1.00  0.00     0.024 C 
ATOM      6  C   UNL     1      16.844  15.142 -16.125  1.00  0.00     0.034 C 
ATOM      7  C   UNL     1      18.317  14.702 -16.282  1.00  0.00     0.071 C 
ATOM      8  C   UNL     1      16.591  16.455 -16.819  1.00  0.00     0.013 C 
ATOM      9  C   UNL     1      17.576  17.166 -17.384  1.00  0.00     0.196 C 
ATOM     10  O   UNL     1      18.909  16.847 -17.341  1.00  0.00    -0.472 OA
BRANCH   5  11
ATOM     11  C   UNL     1      19.533  12.982 -17.764  1.00  0.00     0.160 C 
BRANCH  11  12
ATOM     12  O   UNL     1      19.921  12.354 -16.549  1.00  0.00    -0.396 OA
ATOM     13  H   UNL     1      19.739  11.402 -16.647  1.00  0.00     0.210 HD
ENDBRANCH  11  12
ENDBRANCH   5  11
BRANCH   8  14
ATOM     14  C   UNL     1      15.149  17.001 -16.874  1.00  0.00     0.071 C 
ATOM     15  O   UNL     1      14.547  16.851 -17.974  1.00  0.00    -0.545 OA
ATOM     16  O   UNL     1      14.750  17.541 -15.803  1.00  0.00    -0.545 OA
ENDBRANCH   8  14
ENDBRANCH   1   2
BRANCH   1  17
ATOM     17  C   UNL     1      20.409  17.225 -14.698  1.00  0.00     0.286 C 
ATOM     18  C   UNL     1      20.352  17.527 -13.189  1.00  0.00     0.202 C 
ATOM     19  O   UNL     1      21.544  16.412 -15.008  1.00  0.00    -0.341 OA
ATOM     20  C   UNL     1      21.654  18.186 -12.749  1.00  0.00     0.179 C 
ATOM     21  C   UNL     1      22.787  17.054 -14.669  1.00  0.00     0.178 C 
ATOM     22  C   UNL     1      22.857  17.337 -13.163  1.00  0.00     0.177 C 
BRANCH  18  23
ATOM     23  O   UNL     1      19.272  18.409 -12.850  1.00  0.00    -0.385 OA
ATOM     24  H   UNL     1      19.431  19.243 -13.345  1.00  0.00     0.211 HD
ENDBRANCH  18  23
BRANCH  20  25
ATOM     25  O   UNL     1      21.673  18.361 -11.322  1.00  0.00    -0.387 OA
ATOM     26  H   UNL     1      22.614  18.228 -11.076  1.00  0.00     0.211 HD
ENDBRANCH  20  25
BRANCH  21  27
ATOM     27  C   UNL     1      23.919  16.122 -15.113  1.00  0.00     0.191 C 
BRANCH  27  28
ATOM     28  O   UNL     1      25.164  16.825 -15.085  1.00  0.00    -0.394 OA
ATOM     29  H   UNL     1      24.967  17.718 -15.431  1.00  0.00     0.210 HD
ENDBRANCH  27  28
ENDBRANCH  21  27
BRANCH  22  30
ATOM     30  O   UNL     1      24.060  18.026 -12.814  1.00  0.00    -0.387 OA
ATOM     31  H   UNL     1      24.471  17.474 -12.117  1.00  0.00     0.211 HD
ENDBRANCH  22  30
ENDBRANCH   1  17
TORSDOF 10
ENDMDL
MODEL 7
REMARK VINA RESULT:    -6.807      2.312      7.429
REMARK INTER + INTRA:         -10.694
REMARK INTER:                  -9.777
REMARK INTRA:                  -0.917
REMARK UNBOUND:                -0.903
REMARK SMILES O=C([O-])C1=CO[C@@H](O[C@@H]2O[C@H](CO)[C@@H](O)[C@H](O)[C@H]2O)[C@@H]2[C@@H](CO)CC[C@H]12
REMARK SMILES IDX 8 1 7 2 24 3 25 4 21 5 26 6 20 7 4 8 5 9 6 10 22 11 23 12
REMARK SMILES IDX 2 14 1 15 3 16 9 17 18 18 10 19 16 20 11 21 14 22 19 23
REMARK SMILES IDX 17 25 12 27 13 28 15 30
REMARK H PARENT 23 13 19 24 17 26 13 29 15 31
ROOT
ATOM      1  O   UNL     1      23.171  17.539 -16.480  1.00  0.00    -0.310 OA
ENDROOT
BRANCH   1   2
ATOM      2  C   UNL     1      24.601  17.450 -16.381  1.00  0.00     0.313 C 
ATOM      3  C   UNL     1      26.801  20.229 -15.018  1.00  0.00     0.007 C 
ATOM      4  C   UNL     1      25.720  20.117 -13.945  1.00  0.00     0.009 C 
ATOM      5  C   UNL     1      26.649  18.961 -15.852  1.00  0.00     0.024 C 
ATOM      6  C   UNL     1      24.670  19.115 -14.471  1.00  0.00     0.034 C 
ATOM      7  C   UNL     1      25.119  18.814 -15.919  1.00  0.00     0.071 C 
ATOM      8  C   UNL     1      24.605  17.856 -13.647  1.00  0.00     0.013 C 
ATOM      9  C   UNL     1      24.807  16.643 -14.179  1.00  0.00     0.196 C 
ATOM     10  O   UNL     1      25.014  16.386 -15.510  1.00  0.00    -0.472 OA
BRANCH   5  11
ATOM     11  C   UNL     1      27.333  19.077 -17.207  1.00  0.00     0.160 C 
BRANCH  11  12
ATOM     12  O   UNL     1      28.743  19.189 -17.058  1.00  0.00    -0.396 OA
ATOM     13  H   UNL     1      29.116  18.297 -17.175  1.00  0.00     0.210 HD
ENDBRANCH  11  12
ENDBRANCH   5  11
BRANCH   8  14
ATOM     14  C   UNL     1      24.289  17.967 -12.141  1.00  0.00     0.071 C 
ATOM     15  O   UNL     1      25.181  17.534 -11.359  1.00  0.00    -0.545 OA
ATOM     16  O   UNL     1      23.164  18.479 -11.876  1.00  0.00    -0.545 OA
ENDBRANCH   8  14
ENDBRANCH   1   2
BRANCH   1  17
ATOM     17  C   UNL     1      22.568  16.286 -16.778  1.00  0.00     0.286 C 
ATOM     18  C   UNL     1      21.299  16.206 -15.911  1.00  0.00     0.202 C 
ATOM     19  O   UNL     1      22.235  16.231 -18.168  1.00  0.00    -0.341 OA
ATOM     20  C   UNL     1      20.522  14.940 -16.254  1.00  0.00     0.179 C 
ATOM     21  C   UNL     1      21.569  15.005 -18.523  1.00  0.00     0.178 C 
ATOM     22  C   UNL     1      20.249  14.864 -17.756  1.00  0.00     0.177 C 
BRANCH  18  23
ATOM     23  O   UNL     1      21.598  16.176 -14.508  1.00  0.00    -0.385 OA
ATOM     24  H   UNL     1      22.485  15.761 -14.424  1.00  0.00     0.211 HD
ENDBRANCH  18  23
BRANCH  20  25
ATOM     25  O   UNL     1      19.271  14.910 -15.547  1.00  0.00    -0.387 OA
ATOM     26  H   UNL     1      18.640  15.353 -16.155  1.00  0.00     0.211 HD
ENDBRANCH  20  25
BRANCH  21  27
ATOM     27  C   UNL     1      21.332  15.035 -20.037  1.00  0.00     0.191 C 
BRANCH  27  28
ATOM     28  O   UNL     1      21.207  13.700 -20.534  1.00  0.00    -0.394 OA
ATOM     29  H   UNL     1      21.173  13.786 -21.508  1.00  0.00     0.210 HD
ENDBRANCH  27  28
ENDBRANCH  21  27
BRANCH  22  30
ATOM     30  O   UNL     1      19.599  13.625 -18.053  1.00  0.00    -0.387 OA
ATOM     31  H   UNL     1      19.760  13.482 -19.009  1.00  0.00     0.211 HD
ENDBRANCH  22  30
ENDBRANCH   1  17
TORSDOF 10
ENDMDL
MODEL 8
REMARK VINA RESULT:    -6.770      2.398      7.242
REMARK INTER + INTRA:         -10.641
REMARK INTER:                  -9.709
REMARK INTRA:                  -0.931
REMARK UNBOUND:                -0.903
REMARK SMILES O=C([O-])C1=CO[C@@H](O[C@@H]2O[C@H](CO)[C@@H](O)[C@H](O)[C@H]2O)[C@@H]2[C@@H](CO)CC[C@H]12
REMARK SMILES IDX 8 1 7 2 24 3 25 4 21 5 26 6 20 7 4 8 5 9 6 10 22 11 23 12
REMARK SMILES IDX 2 14 1 15 3 16 9 17 18 18 10 19 16 20 11 21 14 22 19 23
REMARK SMILES IDX 17 25 12 27 13 28 15 30
REMARK H PARENT 23 13 19 24 17 26 13 29 15 31
ROOT
ATOM      1  O   UNL     1      22.445  18.827 -15.193  1.00  0.00    -0.310 OA
ENDROOT
BRANCH   1   2
ATOM      2  C   UNL     1      23.664  18.517 -15.884  1.00  0.00     0.313 C 
ATOM      3  C   UNL     1      26.957  20.305 -15.268  1.00  0.00     0.007 C 
ATOM      4  C   UNL     1      26.503  19.965 -13.849  1.00  0.00     0.009 C 
ATOM      5  C   UNL     1      26.074  19.449 -16.170  1.00  0.00     0.024 C 
ATOM      6  C   UNL     1      25.085  19.367 -13.965  1.00  0.00     0.034 C 
ATOM      7  C   UNL     1      24.715  19.543 -15.455  1.00  0.00     0.071 C 
ATOM      8  C   UNL     1      25.030  17.917 -13.557  1.00  0.00     0.013 C 
ATOM      9  C   UNL     1      24.597  16.959 -14.386  1.00  0.00     0.196 C 
ATOM     10  O   UNL     1      24.090  17.167 -15.644  1.00  0.00    -0.472 OA
BRANCH   5  11
ATOM     11  C   UNL     1      26.068  19.947 -17.609  1.00  0.00     0.160 C 
BRANCH  11  12
ATOM     12  O   UNL     1      27.213  19.483 -18.314  1.00  0.00    -0.396 OA
ATOM     13  H   UNL     1      27.995  19.738 -17.791  1.00  0.00     0.210 HD
ENDBRANCH  11  12
ENDBRANCH   5  11
BRANCH   8  14
ATOM     14  C   UNL     1      25.481  17.528 -12.135  1.00  0.00     0.071 C 
ATOM     15  O   UNL     1      26.622  16.992 -12.048  1.00  0.00    -0.545 OA
ATOM     16  O   UNL     1      24.643  17.790 -11.226  1.00  0.00    -0.545 OA
ENDBRANCH   8  14
ENDBRANCH   1   2
BRANCH   1  17
ATOM     17  C   UNL     1      21.542  17.728 -15.163  1.00  0.00     0.286 C 
ATOM     18  C   UNL     1      20.828  17.801 -13.801  1.00  0.00     0.202 C 
ATOM     19  O   UNL     1      20.602  17.848 -16.234  1.00  0.00    -0.341 OA
ATOM     20  C   UNL     1      19.752  16.723 -13.729  1.00  0.00     0.179 C 
ATOM     21  C   UNL     1      19.624  16.792 -16.224  1.00  0.00     0.178 C 
ATOM     22  C   UNL     1      18.807  16.822 -14.927  1.00  0.00     0.177 C 
BRANCH  18  23
ATOM     23  O   UNL     1      21.729  17.602 -12.701  1.00  0.00    -0.385 OA
ATOM     24  H   UNL     1      22.042  16.673 -12.766  1.00  0.00     0.211 HD
ENDBRANCH  18  23
BRANCH  20  25
ATOM     25  O   UNL     1      18.988  16.854 -12.517  1.00  0.00    -0.387 OA
ATOM     26  H   UNL     1      19.573  16.481 -11.823  1.00  0.00     0.211 HD
ENDBRANCH  20  25
BRANCH  21  27
ATOM     27  C   UNL     1      18.727  16.989 -17.451  1.00  0.00     0.191 C 
BRANCH  27  28
ATOM     28  O   UNL     1      18.091  15.753 -17.788  1.00  0.00    -0.394 OA
ATOM     29  H   UNL     1      18.704  15.053 -17.487  1.00  0.00     0.210 HD
ENDBRANCH  27  28
ENDBRANCH  21  27
BRANCH  22  30
ATOM     30  O   UNL     1      17.868  15.744 -14.873  1.00  0.00    -0.387 OA
ATOM     31  H   UNL     1      17.297  15.871 -15.660  1.00  0.00     0.211 HD
ENDBRANCH  22  30
ENDBRANCH   1  17
TORSDOF 10
ENDMDL
MODEL 9
REMARK VINA RESULT:    -6.682      2.716      7.953
REMARK INTER + INTRA:         -10.514
REMARK INTER:                  -9.740
REMARK INTRA:                  -0.774
REMARK UNBOUND:                -0.903
REMARK SMILES O=C([O-])C1=CO[C@@H](O[C@@H]2O[C@H](CO)[C@@H](O)[C@H](O)[C@H]2O)[C@@H]2[C@@H](CO)CC[C@H]12
REMARK SMILES IDX 8 1 7 2 24 3 25 4 21 5 26 6 20 7 4 8 5 9 6 10 22 11 23 12
REMARK SMILES IDX 2 14 1 15 3 16 9 17 18 18 10 19 16 20 11 21 14 22 19 23
REMARK SMILES IDX 17 25 12 27 13 28 15 30
REMARK H PARENT 23 13 19 24 17 26 13 29 15 31
ROOT
ATOM      1  O   UNL     1      23.333  17.166 -16.878  1.00  0.00    -0.310 OA
ENDROOT
BRANCH   1   2
ATOM      2  C   UNL     1      22.823  18.030 -15.852  1.00  0.00     0.313 C 
ATOM      3  C   UNL     1      23.954  17.907 -12.229  1.00  0.00     0.007 C 
ATOM      4  C   UNL     1      25.283  17.933 -12.982  1.00  0.00     0.009 C 
ATOM      5  C   UNL     1      22.914  18.311 -13.269  1.00  0.00     0.024 C 
ATOM      6  C   UNL     1      24.947  17.825 -14.485  1.00  0.00     0.034 C 
ATOM      7  C   UNL     1      23.423  17.574 -14.520  1.00  0.00     0.071 C 
ATOM      8  C   UNL     1      25.313  19.069 -15.253  1.00  0.00     0.013 C 
ATOM      9  C   UNL     1      24.410  19.766 -15.955  1.00  0.00     0.196 C 
ATOM     10  O   UNL     1      23.096  19.413 -16.128  1.00  0.00    -0.472 OA
BRANCH   5  11
ATOM     11  C   UNL     1      21.500  17.937 -12.845  1.00  0.00     0.160 C 
BRANCH  11  12
ATOM     12  O   UNL     1      21.260  18.303 -11.492  1.00  0.00    -0.396 OA
ATOM     13  H   UNL     1      21.483  19.247 -11.406  1.00  0.00     0.210 HD
ENDBRANCH  11  12
ENDBRANCH   5  11
BRANCH   8  14
ATOM     14  C   UNL     1      26.778  19.551 -15.234  1.00  0.00     0.071 C 
ATOM     15  O   UNL     1      27.499  19.153 -16.191  1.00  0.00    -0.545 OA
ATOM     16  O   UNL     1      27.077  20.286 -14.250  1.00  0.00    -0.545 OA
ENDBRANCH   8  14
ENDBRANCH   1   2
BRANCH   1  17
ATOM     17  C   UNL     1      22.301  16.461 -17.559  1.00  0.00     0.286 C 
ATOM     18  C   UNL     1      22.818  16.225 -18.989  1.00  0.00     0.202 C 
ATOM     19  O   UNL     1      22.053  15.216 -16.899  1.00  0.00    -0.341 OA
ATOM     20  C   UNL     1      21.819  15.370 -19.760  1.00  0.00     0.179 C 
ATOM     21  C   UNL     1      21.054  14.430 -17.574  1.00  0.00     0.178 C 
ATOM     22  C   UNL     1      21.509  14.082 -18.997  1.00  0.00     0.177 C 
BRANCH  18  23
ATOM     23  O   UNL     1      23.002  17.452 -19.712  1.00  0.00    -0.385 OA
ATOM     24  H   UNL     1      23.624  17.250 -20.445  1.00  0.00     0.211 HD
ENDBRANCH  18  23
BRANCH  20  25
ATOM     25  O   UNL     1      22.341  15.032 -21.057  1.00  0.00    -0.387 OA
ATOM     26  H   UNL     1      22.562  15.899 -21.460  1.00  0.00     0.211 HD
ENDBRANCH  20  25
BRANCH  21  27
ATOM     27  C   UNL     1      20.827  13.165 -16.738  1.00  0.00     0.191 C 
BRANCH  27  28
ATOM     28  O   UNL     1      19.493  12.689 -16.934  1.00  0.00    -0.394 OA
ATOM     29  H   UNL     1      18.953  13.138 -16.253  1.00  0.00     0.210 HD
ENDBRANCH  27  28
ENDBRANCH  21  27
BRANCH  22  30
ATOM     30  O   UNL     1      20.505  13.348 -19.703  1.00  0.00    -0.387 OA
ATOM     31  H   UNL     1      19.670  13.828 -19.521  1.00  0.00     0.211 HD
ENDBRANCH  22  30
ENDBRANCH   1  17
TORSDOF 10
ENDMDL
