MODEL 1
REMARK VINA RESULT:    -7.384      0.000      0.000
REMARK INTER + INTRA:         -11.526
REMARK INTER:                 -10.622
REMARK INTRA:                  -0.904
REMARK UNBOUND:                -0.904
REMARK SMILES O=C([O-])C1=CO[C@@H](O[C@@H]2O[C@H](CO)[C@@H](O)[C@H](O)[C@H]2O)[C@@H]2[C@@H](CO)CC[C@H]12
REMARK SMILES IDX 8 1 7 2 24 3 25 4 21 5 26 6 20 7 4 8 5 9 6 10 22 11 23 12
REMARK SMILES IDX 2 14 1 15 3 16 9 17 18 18 10 19 16 20 11 21 14 22 19 23
REMARK SMILES IDX 17 25 12 27 13 28 15 30
REMARK H PARENT 23 13 19 24 17 26 13 29 15 31
ROOT
ATOM      1  O   UNL     1      20.450  16.204 -15.089  1.00  0.00    -0.310 OA
ENDROOT
BRANCH   1   2
ATOM      2  C   UNL     1      20.282  16.215 -16.515  1.00  0.00     0.313 C 
ATOM      3  C   UNL     1      19.253  13.175 -18.545  1.00  0.00     0.007 C 
ATOM      4  C   UNL     1      18.220  13.178 -17.420  1.00  0.00     0.009 C 
ATOM      5  C   UNL     1      19.898  14.555 -18.479  1.00  0.00     0.024 C 
ATOM      6  C   UNL     1      18.635  14.290 -16.434  1.00  0.00     0.034 C 
ATOM      7  C   UNL     1      20.004  14.778 -16.960  1.00  0.00     0.071 C 
ATOM      8  C   UNL     1      17.639  15.419 -16.378  1.00  0.00     0.013 C 
ATOM      9  C   UNL     1      17.979  16.685 -16.649  1.00  0.00     0.196 C 
ATOM     10  O   UNL     1      19.249  17.123 -16.927  1.00  0.00    -0.472 OA
BRANCH   5  11
ATOM     11  C   UNL     1      21.227  14.607 -19.220  1.00  0.00     0.160 C 
BRANCH  11  12
ATOM     12  O   UNL     1      21.277  13.623 -20.246  1.00  0.00    -0.396 OA
ATOM     13  H   UNL     1      21.034  12.771 -19.840  1.00  0.00     0.210 HD
ENDBRANCH  11  12
ENDBRANCH   5  11
BRANCH   8  14
ATOM     14  C   UNL     1      16.180  15.104 -15.989  1.00  0.00     0.071 C 
ATOM     15  O   UNL     1      15.337  15.161 -16.928  1.00  0.00    -0.545 OA
ATOM     16  O   UNL     1      16.008  14.832 -14.767  1.00  0.00    -0.545 OA
ENDBRANCH   8  14
ENDBRANCH   1   2
BRANCH   1  17
ATOM     17  C   UNL     1      21.392  17.174 -14.646  1.00  0.00     0.286 C 
ATOM     18  C   UNL     1      21.085  17.415 -13.156  1.00  0.00     0.202 C 
ATOM     19  O   UNL     1      22.719  16.668 -14.813  1.00  0.00    -0.341 OA
ATOM     20  C   UNL     1      22.126  18.360 -12.566  1.00  0.00     0.179 C 
ATOM     21  C   UNL     1      23.719  17.585 -14.329  1.00  0.00     0.178 C 
ATOM     22  C   UNL     1      23.539  17.839 -12.828  1.00  0.00     0.177 C 
BRANCH  18  23
ATOM     23  O   UNL     1      19.790  18.000 -12.954  1.00  0.00    -0.385 OA
ATOM     24  H   UNL     1      19.872  18.945 -13.210  1.00  0.00     0.211 HD
ENDBRANCH  18  23
BRANCH  20  25
ATOM     25  O   UNL     1      21.932  18.499 -11.148  1.00  0.00    -0.387 OA
ATOM     26  H   UNL     1      22.108  19.449 -10.973  1.00  0.00     0.211 HD
ENDBRANCH  20  25
BRANCH  21  27
ATOM     27  C   UNL     1      25.088  16.966 -14.628  1.00  0.00     0.191 C 
BRANCH  27  28
ATOM     28  O   UNL     1      25.727  16.590 -13.406  1.00  0.00    -0.394 OA
ATOM     29  H   UNL     1      26.588  17.054 -13.407  1.00  0.00     0.210 HD
ENDBRANCH  27  28
ENDBRANCH  21  27
BRANCH  22  30
ATOM     30  O   UNL     1      24.488  18.791 -12.340  1.00  0.00    -0.387 OA
ATOM     31  H   UNL     1      23.983  19.626 -12.254  1.00  0.00     0.211 HD
ENDBRANCH  22  30
ENDBRANCH   1  17
TORSDOF 10
ENDMDL
MODEL 2
REMARK VINA RESULT:    -7.240      1.354      1.732
REMARK INTER + INTRA:         -11.318
REMARK INTER:                 -10.259
REMARK INTRA:                  -1.059
REMARK UNBOUND:                -0.904
REMARK SMILES O=C([O-])C1=CO[C@@H](O[C@@H]2O[C@H](CO)[C@@H](O)[C@H](O)[C@H]2O)[C@@H]2[C@@H](CO)CC[C@H]12
REMARK SMILES IDX 8 1 7 2 24 3 25 4 21 5 26 6 20 7 4 8 5 9 6 10 22 11 23 12
REMARK SMILES IDX 2 14 1 15 3 16 9 17 18 18 10 19 16 20 11 21 14 22 19 23
REMARK SMILES IDX 17 25 12 27 13 28 15 30
REMARK H PARENT 23 13 19 24 17 26 13 29 15 31
ROOT
ATOM      1  O   UNL     1      21.809  16.117 -15.609  1.00  0.00    -0.310 OA
ENDROOT
BRANCH   1   2
ATOM      2  C   UNL     1      21.667  16.535 -16.975  1.00  0.00     0.313 C 
ATOM      3  C   UNL     1      21.021  14.148 -19.857  1.00  0.00     0.007 C 
ATOM      4  C   UNL     1      19.973  13.712 -18.835  1.00  0.00     0.009 C 
ATOM      5  C   UNL     1      21.507  15.504 -19.356  1.00  0.00     0.024 C 
ATOM      6  C   UNL     1      20.243  14.518 -17.546  1.00  0.00     0.034 C 
ATOM      7  C   UNL     1      21.559  15.274 -17.836  1.00  0.00     0.071 C 
ATOM      8  C   UNL     1      19.127  15.473 -17.212  1.00  0.00     0.013 C 
ATOM      9  C   UNL     1      19.330  16.790 -17.082  1.00  0.00     0.196 C 
ATOM     10  O   UNL     1      20.548  17.416 -17.155  1.00  0.00    -0.472 OA
BRANCH   5  11
ATOM     11  C   UNL     1      22.836  15.907 -19.981  1.00  0.00     0.160 C 
BRANCH  11  12
ATOM     12  O   UNL     1      23.008  15.293 -21.252  1.00  0.00    -0.396 OA
ATOM     13  H   UNL     1      23.000  14.329 -21.110  1.00  0.00     0.210 HD
ENDBRANCH  11  12
ENDBRANCH   5  11
BRANCH   8  14
ATOM     14  C   UNL     1      17.705  14.912 -17.007  1.00  0.00     0.071 C 
ATOM     15  O   UNL     1      17.622  13.869 -16.300  1.00  0.00    -0.545 OA
ATOM     16  O   UNL     1      16.792  15.569 -17.584  1.00  0.00    -0.545 OA
ENDBRANCH   8  14
ENDBRANCH   1   2
BRANCH   1  17
ATOM     17  C   UNL     1      22.424  17.111 -14.797  1.00  0.00     0.286 C 
ATOM     18  C   UNL     1      21.506  17.293 -13.575  1.00  0.00     0.202 C 
ATOM     19  O   UNL     1      23.722  16.667 -14.393  1.00  0.00    -0.341 OA
ATOM     20  C   UNL     1      22.150  18.261 -12.590  1.00  0.00     0.179 C 
ATOM     21  C   UNL     1      24.376  17.608 -13.522  1.00  0.00     0.178 C 
ATOM     22  C   UNL     1      23.567  17.807 -12.235  1.00  0.00     0.177 C 
BRANCH  18  23
ATOM     23  O   UNL     1      20.219  17.817 -13.934  1.00  0.00    -0.385 OA
ATOM     24  H   UNL     1      19.866  17.225 -14.635  1.00  0.00     0.211 HD
ENDBRANCH  18  23
BRANCH  20  25
ATOM     25  O   UNL     1      21.370  18.347 -11.385  1.00  0.00    -0.387 OA
ATOM     26  H   UNL     1      21.983  18.745 -10.729  1.00  0.00     0.211 HD
ENDBRANCH  20  25
BRANCH  21  27
ATOM     27  C   UNL     1      25.774  17.056 -13.220  1.00  0.00     0.191 C 
BRANCH  27  28
ATOM     28  O   UNL     1      26.572  18.071 -12.605  1.00  0.00    -0.394 OA
ATOM     29  H   UNL     1      26.015  18.875 -12.601  1.00  0.00     0.210 HD
ENDBRANCH  27  28
ENDBRANCH  21  27
BRANCH  22  30
ATOM     30  O   UNL     1      24.171  18.782 -11.380  1.00  0.00    -0.387 OA
ATOM     31  H   UNL     1      23.450  19.411 -11.169  1.00  0.00     0.211 HD
ENDBRANCH  22  30
ENDBRANCH   1  17
TORSDOF 10
ENDMDL
MODEL 3
REMARK VINA RESULT:    -7.229      2.704      7.172
REMARK INTER + INTRA:         -11.302
REMARK INTER:                 -10.586
REMARK INTRA:                  -0.716
REMARK UNBOUND:                -0.904
REMARK SMILES O=C([O-])C1=CO[C@@H](O[C@@H]2O[C@H](CO)[C@@H](O)[C@H](O)[C@H]2O)[C@@H]2[C@@H](CO)CC[C@H]12
REMARK SMILES IDX 8 1 7 2 24 3 25 4 21 5 26 6 20 7 4 8 5 9 6 10 22 11 23 12
REMARK SMILES IDX 2 14 1 15 3 16 9 17 18 18 10 19 16 20 11 21 14 22 19 23
REMARK SMILES IDX 17 25 12 27 13 28 15 30
REMARK H PARENT 23 13 19 24 17 26 13 29 15 31
ROOT
ATOM      1  O   UNL     1      23.563  16.069 -15.448  1.00  0.00    -0.310 OA
ENDROOT
BRANCH   1   2
ATOM      2  C   UNL     1      23.991  16.520 -14.154  1.00  0.00     0.313 C 
ATOM      3  C   UNL     1      26.431  19.378 -13.613  1.00  0.00     0.007 C 
ATOM      4  C   UNL     1      25.436  19.985 -14.600  1.00  0.00     0.009 C 
ATOM      5  C   UNL     1      25.740  18.123 -13.092  1.00  0.00     0.024 C 
ATOM      6  C   UNL     1      24.474  18.853 -15.018  1.00  0.00     0.034 C 
ATOM      7  C   UNL     1      25.069  17.584 -14.367  1.00  0.00     0.071 C 
ATOM      8  C   UNL     1      23.060  19.091 -14.556  1.00  0.00     0.013 C 
ATOM      9  C   UNL     1      22.409  18.221 -13.772  1.00  0.00     0.196 C 
ATOM     10  O   UNL     1      22.894  17.005 -13.364  1.00  0.00    -0.472 OA
BRANCH   5  11
ATOM     11  C   UNL     1      26.717  17.157 -12.435  1.00  0.00     0.160 C 
BRANCH  11  12
ATOM     12  O   UNL     1      27.976  17.779 -12.212  1.00  0.00    -0.396 OA
ATOM     13  H   UNL     1      28.212  17.627 -11.279  1.00  0.00     0.210 HD
ENDBRANCH  11  12
ENDBRANCH   5  11
BRANCH   8  14
ATOM     14  C   UNL     1      22.337  20.377 -15.006  1.00  0.00     0.071 C 
ATOM     15  O   UNL     1      21.770  21.037 -14.091  1.00  0.00    -0.545 OA
ATOM     16  O   UNL     1      22.398  20.608 -16.247  1.00  0.00    -0.545 OA
ENDBRANCH   8  14
ENDBRANCH   1   2
BRANCH   1  17
ATOM     17  C   UNL     1      22.347  15.332 -15.393  1.00  0.00     0.286 C 
ATOM     18  C   UNL     1      21.652  15.553 -16.748  1.00  0.00     0.202 C 
ATOM     19  O   UNL     1      22.634  13.945 -15.192  1.00  0.00    -0.341 OA
ATOM     20  C   UNL     1      20.390  14.701 -16.822  1.00  0.00     0.179 C 
ATOM     21  C   UNL     1      21.444  13.135 -15.183  1.00  0.00     0.178 C 
ATOM     22  C   UNL     1      20.710  13.235 -16.525  1.00  0.00     0.177 C 
BRANCH  18  23
ATOM     23  O   UNL     1      21.274  16.923 -16.950  1.00  0.00    -0.385 OA
ATOM     24  H   UNL     1      21.100  17.022 -17.912  1.00  0.00     0.211 HD
ENDBRANCH  18  23
BRANCH  20  25
ATOM     25  O   UNL     1      19.794  14.795 -18.127  1.00  0.00    -0.387 OA
ATOM     26  H   UNL     1      19.076  15.455 -18.016  1.00  0.00     0.211 HD
ENDBRANCH  20  25
BRANCH  21  27
ATOM     27  C   UNL     1      21.874  11.694 -14.890  1.00  0.00     0.191 C 
BRANCH  27  28
ATOM     28  O   UNL     1      22.321  11.588 -13.536  1.00  0.00    -0.394 OA
ATOM     29  H   UNL     1      22.177  10.654 -13.285  1.00  0.00     0.210 HD
ENDBRANCH  27  28
ENDBRANCH  21  27
BRANCH  22  30
ATOM     30  O   UNL     1      19.494  12.482 -16.515  1.00  0.00    -0.387 OA
ATOM     31  H   UNL     1      18.805  13.118 -16.801  1.00  0.00     0.211 HD
ENDBRANCH  22  30
ENDBRANCH   1  17
TORSDOF 10
ENDMDL
MODEL 4
REMARK VINA RESULT:    -7.211      2.327      4.684
REMARK INTER + INTRA:         -11.276
REMARK INTER:                 -10.326
REMARK INTRA:                  -0.950
REMARK UNBOUND:                -0.904
REMARK SMILES O=C([O-])C1=CO[C@@H](O[C@@H]2O[C@H](CO)[C@@H](O)[C@H](O)[C@H]2O)[C@@H]2[C@@H](CO)CC[C@H]12
REMARK SMILES IDX 8 1 7 2 24 3 25 4 21 5 26 6 20 7 4 8 5 9 6 10 22 11 23 12
REMARK SMILES IDX 2 14 1 15 3 16 9 17 18 18 10 19 16 20 11 21 14 22 19 23
REMARK SMILES IDX 17 25 12 27 13 28 15 30
REMARK H PARENT 23 13 19 24 17 26 13 29 15 31
ROOT
ATOM      1  O   UNL     1      23.631  16.324 -15.875  1.00  0.00    -0.310 OA
ENDROOT
BRANCH   1   2
ATOM      2  C   UNL     1      22.587  15.969 -14.956  1.00  0.00     0.313 C 
ATOM      3  C   UNL     1      18.909  16.696 -15.554  1.00  0.00     0.007 C 
ATOM      4  C   UNL     1      19.331  16.057 -16.876  1.00  0.00     0.009 C 
ATOM      5  C   UNL     1      20.045  16.374 -14.590  1.00  0.00     0.024 C 
ATOM      6  C   UNL     1      20.861  15.858 -16.808  1.00  0.00     0.034 C 
ATOM      7  C   UNL     1      21.279  16.554 -15.492  1.00  0.00     0.071 C 
ATOM      8  C   UNL     1      21.259  14.405 -16.807  1.00  0.00     0.013 C 
ATOM      9  C   UNL     1      21.983  13.864 -15.819  1.00  0.00     0.196 C 
ATOM     10  O   UNL     1      22.509  14.550 -14.753  1.00  0.00    -0.472 OA
BRANCH   5  11
ATOM     11  C   UNL     1      20.027  17.269 -13.358  1.00  0.00     0.160 C 
BRANCH  11  12
ATOM     12  O   UNL     1      18.990  16.885 -12.464  1.00  0.00    -0.396 OA
ATOM     13  H   UNL     1      18.174  17.325 -12.763  1.00  0.00     0.210 HD
ENDBRANCH  11  12
ENDBRANCH   5  11
BRANCH   8  14
ATOM     14  C   UNL     1      20.822  13.514 -17.988  1.00  0.00     0.071 C 
ATOM     15  O   UNL     1      19.809  12.788 -17.782  1.00  0.00    -0.545 OA
ATOM     16  O   UNL     1      21.542  13.620 -19.021  1.00  0.00    -0.545 OA
ENDBRANCH   8  14
ENDBRANCH   1   2
BRANCH   1  17
ATOM     17  C   UNL     1      24.806  16.779 -15.213  1.00  0.00     0.286 C 
ATOM     18  C   UNL     1      25.165  18.128 -15.861  1.00  0.00     0.202 C 
ATOM     19  O   UNL     1      24.540  16.943 -13.817  1.00  0.00    -0.341 OA
ATOM     20  C   UNL     1      26.352  18.747 -15.131  1.00  0.00     0.179 C 
ATOM     21  C   UNL     1      25.678  17.455 -13.100  1.00  0.00     0.178 C 
ATOM     22  C   UNL     1      26.075  18.838 -13.629  1.00  0.00     0.177 C 
BRANCH  18  23
ATOM     23  O   UNL     1      25.519  17.992 -17.245  1.00  0.00    -0.385 OA
ATOM     24  H   UNL     1      26.256  17.342 -17.278  1.00  0.00     0.211 HD
ENDBRANCH  18  23
BRANCH  20  25
ATOM     25  O   UNL     1      26.623  20.065 -15.638  1.00  0.00    -0.387 OA
ATOM     26  H   UNL     1      27.488  19.974 -16.094  1.00  0.00     0.211 HD
ENDBRANCH  20  25
BRANCH  21  27
ATOM     27  C   UNL     1      25.294  17.516 -11.618  1.00  0.00     0.191 C 
BRANCH  27  28
ATOM     28  O   UNL     1      24.634  18.754 -11.340  1.00  0.00    -0.394 OA
ATOM     29  H   UNL     1      25.332  19.438 -11.382  1.00  0.00     0.210 HD
ENDBRANCH  27  28
ENDBRANCH  21  27
BRANCH  22  30
ATOM     30  O   UNL     1      27.239  19.339 -12.967  1.00  0.00    -0.387 OA
ATOM     31  H   UNL     1      27.416  20.204 -13.393  1.00  0.00     0.211 HD
ENDBRANCH  22  30
ENDBRANCH   1  17
TORSDOF 10
ENDMDL
MODEL 5
REMARK VINA RESULT:    -7.056      1.547      4.536
REMARK INTER + INTRA:         -11.053
REMARK INTER:                 -10.345
REMARK INTRA:                  -0.708
REMARK UNBOUND:                -0.904
REMARK SMILES O=C([O-])C1=CO[C@@H](O[C@@H]2O[C@H](CO)[C@@H](O)[C@H](O)[C@H]2O)[C@@H]2[C@@H](CO)CC[C@H]12
REMARK SMILES IDX 8 1 7 2 24 3 25 4 21 5 26 6 20 7 4 8 5 9 6 10 22 11 23 12
REMARK SMILES IDX 2 14 1 15 3 16 9 17 18 18 10 19 16 20 11 21 14 22 19 23
REMARK SMILES IDX 17 25 12 27 13 28 15 30
REMARK H PARENT 23 13 19 24 17 26 13 29 15 31
ROOT
ATOM      1  O   UNL     1      22.264  15.090 -15.922  1.00  0.00    -0.310 OA
ENDROOT
BRANCH   1   2
ATOM      2  C   UNL     1      21.071  14.367 -16.261  1.00  0.00     0.313 C 
ATOM      3  C   UNL     1      18.315  15.755 -18.474  1.00  0.00     0.007 C 
ATOM      4  C   UNL     1      19.569  16.049 -19.296  1.00  0.00     0.009 C 
ATOM      5  C   UNL     1      18.774  14.759 -17.414  1.00  0.00     0.024 C 
ATOM      6  C   UNL     1      20.779  15.665 -18.418  1.00  0.00     0.034 C 
ATOM      7  C   UNL     1      20.161  15.314 -17.046  1.00  0.00     0.071 C 
ATOM      8  C   UNL     1      21.559  14.504 -18.978  1.00  0.00     0.013 C 
ATOM      9  C   UNL     1      21.757  13.377 -18.284  1.00  0.00     0.196 C 
ATOM     10  O   UNL     1      21.361  13.163 -16.988  1.00  0.00    -0.472 OA
BRANCH   5  11
ATOM     11  C   UNL     1      17.799  14.668 -16.248  1.00  0.00     0.160 C 
BRANCH  11  12
ATOM     12  O   UNL     1      18.226  15.480 -15.162  1.00  0.00    -0.396 OA
ATOM     13  H   UNL     1      17.448  15.639 -14.598  1.00  0.00     0.210 HD
ENDBRANCH  11  12
ENDBRANCH   5  11
BRANCH   8  14
ATOM     14  C   UNL     1      22.152  14.622 -20.397  1.00  0.00     0.071 C 
ATOM     15  O   UNL     1      21.527  14.009 -21.307  1.00  0.00    -0.545 OA
ATOM     16  O   UNL     1      23.203  15.321 -20.471  1.00  0.00    -0.545 OA
ENDBRANCH   8  14
ENDBRANCH   1   2
BRANCH   1  17
ATOM     17  C   UNL     1      22.187  15.692 -14.635  1.00  0.00     0.286 C 
ATOM     18  C   UNL     1      23.411  16.619 -14.524  1.00  0.00     0.202 C 
ATOM     19  O   UNL     1      20.973  16.442 -14.526  1.00  0.00    -0.341 OA
ATOM     20  C   UNL     1      23.346  17.399 -13.215  1.00  0.00     0.179 C 
ATOM     21  C   UNL     1      20.862  17.123 -13.263  1.00  0.00     0.178 C 
ATOM     22  C   UNL     1      22.007  18.126 -13.085  1.00  0.00     0.177 C 
BRANCH  18  23
ATOM     23  O   UNL     1      24.648  15.893 -14.547  1.00  0.00    -0.385 OA
ATOM     24  H   UNL     1      24.545  15.195 -15.231  1.00  0.00     0.211 HD
ENDBRANCH  18  23
BRANCH  20  25
ATOM     25  O   UNL     1      24.412  18.362 -13.150  1.00  0.00    -0.387 OA
ATOM     26  H   UNL     1      24.256  18.836 -12.305  1.00  0.00     0.211 HD
ENDBRANCH  20  25
BRANCH  21  27
ATOM     27  C   UNL     1      19.500  17.824 -13.240  1.00  0.00     0.191 C 
BRANCH  27  28
ATOM     28  O   UNL     1      18.558  17.029 -12.515  1.00  0.00    -0.394 OA
ATOM     29  H   UNL     1      19.015  16.182 -12.335  1.00  0.00     0.210 HD
ENDBRANCH  27  28
ENDBRANCH  21  27
BRANCH  22  30
ATOM     30  O   UNL     1      21.947  18.772 -11.811  1.00  0.00    -0.387 OA
ATOM     31  H   UNL     1      21.069  18.529 -11.449  1.00  0.00     0.211 HD
ENDBRANCH  22  30
ENDBRANCH   1  17
TORSDOF 10
ENDMDL
MODEL 6
REMARK VINA RESULT:    -6.934      1.577      1.850
REMARK INTER + INTRA:         -10.878
REMARK INTER:                  -9.975
REMARK INTRA:                  -0.904
REMARK UNBOUND:                -0.904
REMARK SMILES O=C([O-])C1=CO[C@@H](O[C@@H]2O[C@H](CO)[C@@H](O)[C@H](O)[C@H]2O)[C@@H]2[C@@H](CO)CC[C@H]12
REMARK SMILES IDX 8 1 7 2 24 3 25 4 21 5 26 6 20 7 4 8 5 9 6 10 22 11 23 12
REMARK SMILES IDX 2 14 1 15 3 16 9 17 18 18 10 19 16 20 11 21 14 22 19 23
REMARK SMILES IDX 17 25 12 27 13 28 15 30
REMARK H PARENT 23 13 19 24 17 26 13 29 15 31
ROOT
ATOM      1  O   UNL     1      19.202  16.421 -14.954  1.00  0.00    -0.310 OA
ENDROOT
BRANCH   1   2
ATOM      2  C   UNL     1      19.197  15.827 -16.261  1.00  0.00     0.313 C 
ATOM      3  C   UNL     1      16.971  12.915 -17.251  1.00  0.00     0.007 C 
ATOM      4  C   UNL     1      15.980  13.869 -16.587  1.00  0.00     0.009 C 
ATOM      5  C   UNL     1      18.215  13.762 -17.497  1.00  0.00     0.024 C 
ATOM      6  C   UNL     1      16.805  15.034 -15.999  1.00  0.00     0.034 C 
ATOM      7  C   UNL     1      18.275  14.608 -16.213  1.00  0.00     0.071 C 
ATOM      8  C   UNL     1      16.515  16.350 -16.673  1.00  0.00     0.013 C 
ATOM      9  C   UNL     1      17.472  17.073 -17.268  1.00  0.00     0.196 C 
ATOM     10  O   UNL     1      18.809  16.766 -17.276  1.00  0.00    -0.472 OA
BRANCH   5  11
ATOM     11  C   UNL     1      19.451  12.910 -17.752  1.00  0.00     0.160 C 
BRANCH  11  12
ATOM     12  O   UNL     1      19.923  12.323 -16.546  1.00  0.00    -0.396 OA
ATOM     13  H   UNL     1      20.847  12.055 -16.699  1.00  0.00     0.210 HD
ENDBRANCH  11  12
ENDBRANCH   5  11
BRANCH   8  14
ATOM     14  C   UNL     1      15.068  16.883 -16.671  1.00  0.00     0.071 C 
ATOM     15  O   UNL     1      14.344  16.510 -17.636  1.00  0.00    -0.545 OA
ATOM     16  O   UNL     1      14.786  17.638 -15.697  1.00  0.00    -0.545 OA
ENDBRANCH   8  14
ENDBRANCH   1   2
BRANCH   1  17
ATOM     17  C   UNL     1      20.393  17.156 -14.695  1.00  0.00     0.286 C 
ATOM     18  C   UNL     1      20.354  17.515 -13.198  1.00  0.00     0.202 C 
ATOM     19  O   UNL     1      21.533  16.344 -14.990  1.00  0.00    -0.341 OA
ATOM     20  C   UNL     1      21.654  18.207 -12.804  1.00  0.00     0.179 C 
ATOM     21  C   UNL     1      22.773  17.014 -14.695  1.00  0.00     0.178 C 
ATOM     22  C   UNL     1      22.861  17.357 -13.203  1.00  0.00     0.177 C 
BRANCH  18  23
ATOM     23  O   UNL     1      19.268  18.397 -12.877  1.00  0.00    -0.385 OA
ATOM     24  H   UNL     1      19.647  19.304 -12.855  1.00  0.00     0.211 HD
ENDBRANCH  18  23
BRANCH  20  25
ATOM     25  O   UNL     1      21.692  18.438 -11.385  1.00  0.00    -0.387 OA
ATOM     26  H   UNL     1      22.647  18.543 -11.184  1.00  0.00     0.211 HD
ENDBRANCH  20  25
BRANCH  21  27
ATOM     27  C   UNL     1      23.910  16.078 -15.119  1.00  0.00     0.191 C 
BRANCH  27  28
ATOM     28  O   UNL     1      25.118  16.826 -15.276  1.00  0.00    -0.394 OA
ATOM     29  H   UNL     1      25.191  17.008 -16.234  1.00  0.00     0.210 HD
ENDBRANCH  27  28
ENDBRANCH  21  27
BRANCH  22  30
ATOM     30  O   UNL     1      24.061  18.074 -12.900  1.00  0.00    -0.387 OA
ATOM     31  H   UNL     1      24.446  18.296 -13.773  1.00  0.00     0.211 HD
ENDBRANCH  22  30
ENDBRANCH   1  17
TORSDOF 10
ENDMDL
MODEL 7
REMARK VINA RESULT:    -6.757      6.439      9.610
REMARK INTER + INTRA:         -10.624
REMARK INTER:                  -9.594
REMARK INTRA:                  -1.030
REMARK UNBOUND:                -0.904
REMARK SMILES O=C([O-])C1=CO[C@@H](O[C@@H]2O[C@H](CO)[C@@H](O)[C@H](O)[C@H]2O)[C@@H]2[C@@H](CO)CC[C@H]12
REMARK SMILES IDX 8 1 7 2 24 3 25 4 21 5 26 6 20 7 4 8 5 9 6 10 22 11 23 12
REMARK SMILES IDX 2 14 1 15 3 16 9 17 18 18 10 19 16 20 11 21 14 22 19 23
REMARK SMILES IDX 17 25 12 27 13 28 15 30
REMARK H PARENT 23 13 19 24 17 26 13 29 15 31
ROOT
ATOM      1  O   UNL     1      28.071  20.232 -17.614  1.00  0.00    -0.310 OA
ENDROOT
BRANCH   1   2
ATOM      2  C   UNL     1      26.651  20.418 -17.715  1.00  0.00     0.313 C 
ATOM      3  C   UNL     1      24.115  17.635 -17.222  1.00  0.00     0.007 C 
ATOM      4  C   UNL     1      25.013  17.475 -15.997  1.00  0.00     0.009 C 
ATOM      5  C   UNL     1      24.466  19.010 -17.780  1.00  0.00     0.024 C 
ATOM      6  C   UNL     1      26.186  18.464 -16.170  1.00  0.00     0.034 C 
ATOM      7  C   UNL     1      25.993  19.043 -17.590  1.00  0.00     0.071 C 
ATOM      8  C   UNL     1      26.183  19.555 -15.131  1.00  0.00     0.013 C 
ATOM      9  C   UNL     1      26.135  20.853 -15.459  1.00  0.00     0.196 C 
ATOM     10  O   UNL     1      26.159  21.349 -16.738  1.00  0.00    -0.472 OA
BRANCH   5  11
ATOM     11  C   UNL     1      24.005  19.183 -19.221  1.00  0.00     0.160 C 
BRANCH  11  12
ATOM     12  O   UNL     1      23.155  18.113 -19.616  1.00  0.00    -0.396 OA
ATOM     13  H   UNL     1      22.479  18.486 -20.210  1.00  0.00     0.210 HD
ENDBRANCH  11  12
ENDBRANCH   5  11
BRANCH   8  14
ATOM     14  C   UNL     1      26.246  19.163 -13.641  1.00  0.00     0.071 C 
ATOM     15  O   UNL     1      27.264  18.506 -13.288  1.00  0.00    -0.545 OA
ATOM     16  O   UNL     1      25.257  19.548 -12.954  1.00  0.00    -0.545 OA
ENDBRANCH   8  14
ENDBRANCH   1   2
BRANCH   1  17
ATOM     17  C   UNL     1      28.770  20.767 -18.732  1.00  0.00     0.286 C 
ATOM     18  C   UNL     1      29.528  19.586 -19.364  1.00  0.00     0.202 C 
ATOM     19  O   UNL     1      27.837  21.325 -19.661  1.00  0.00    -0.341 OA
ATOM     20  C   UNL     1      30.216  20.046 -20.645  1.00  0.00     0.179 C 
ATOM     21  C   UNL     1      28.481  21.834 -20.844  1.00  0.00     0.178 C 
ATOM     22  C   UNL     1      29.213  20.711 -21.588  1.00  0.00     0.177 C 
BRANCH  18  23
ATOM     23  O   UNL     1      30.532  19.051 -18.489  1.00  0.00    -0.385 OA
ATOM     24  H   UNL     1      30.052  18.558 -17.788  1.00  0.00     0.211 HD
ENDBRANCH  18  23
BRANCH  20  25
ATOM     25  O   UNL     1      30.824  18.930 -21.318  1.00  0.00    -0.387 OA
ATOM     26  H   UNL     1      30.141  18.633 -21.957  1.00  0.00     0.211 HD
ENDBRANCH  20  25
BRANCH  21  27
ATOM     27  C   UNL     1      27.394  22.465 -21.720  1.00  0.00     0.191 C 
BRANCH  27  28
ATOM     28  O   UNL     1      27.263  21.726 -22.936  1.00  0.00    -0.394 OA
ATOM     29  H   UNL     1      27.312  20.784 -22.676  1.00  0.00     0.210 HD
ENDBRANCH  27  28
ENDBRANCH  21  27
BRANCH  22  30
ATOM     30  O   UNL     1      29.907  21.208 -22.736  1.00  0.00    -0.387 OA
ATOM     31  H   UNL     1      30.513  21.893 -22.384  1.00  0.00     0.211 HD
ENDBRANCH  22  30
ENDBRANCH   1  17
TORSDOF 10
ENDMDL
MODEL 8
REMARK VINA RESULT:    -6.741      2.356      7.474
REMARK INTER + INTRA:         -10.601
REMARK INTER:                  -9.611
REMARK INTRA:                  -0.990
REMARK UNBOUND:                -0.904
REMARK SMILES O=C([O-])C1=CO[C@@H](O[C@@H]2O[C@H](CO)[C@@H](O)[C@H](O)[C@H]2O)[C@@H]2[C@@H](CO)CC[C@H]12
REMARK SMILES IDX 8 1 7 2 24 3 25 4 21 5 26 6 20 7 4 8 5 9 6 10 22 11 23 12
REMARK SMILES IDX 2 14 1 15 3 16 9 17 18 18 10 19 16 20 11 21 14 22 19 23
REMARK SMILES IDX 17 25 12 27 13 28 15 30
REMARK H PARENT 23 13 19 24 17 26 13 29 15 31
ROOT
ATOM      1  O   UNL     1      23.134  17.367 -16.256  1.00  0.00    -0.310 OA
ENDROOT
BRANCH   1   2
ATOM      2  C   UNL     1      24.569  17.365 -16.303  1.00  0.00     0.313 C 
ATOM      3  C   UNL     1      26.723  20.292 -15.201  1.00  0.00     0.007 C 
ATOM      4  C   UNL     1      25.765  20.134 -14.022  1.00  0.00     0.009 C 
ATOM      5  C   UNL     1      26.565  19.004 -16.002  1.00  0.00     0.024 C 
ATOM      6  C   UNL     1      24.730  19.062 -14.427  1.00  0.00     0.034 C 
ATOM      7  C   UNL     1      25.048  18.764 -15.910  1.00  0.00     0.071 C 
ATOM      8  C   UNL     1      24.827  17.814 -13.588  1.00  0.00     0.013 C 
ATOM      9  C   UNL     1      25.047  16.608 -14.126  1.00  0.00     0.196 C 
ATOM     10  O   UNL     1      25.133  16.341 -15.469  1.00  0.00    -0.472 OA
BRANCH   5  11
ATOM     11  C   UNL     1      27.099  19.139 -17.421  1.00  0.00     0.160 C 
BRANCH  11  12
ATOM     12  O   UNL     1      28.499  18.891 -17.464  1.00  0.00    -0.396 OA
ATOM     13  H   UNL     1      28.726  18.384 -16.664  1.00  0.00     0.210 HD
ENDBRANCH  11  12
ENDBRANCH   5  11
BRANCH   8  14
ATOM     14  C   UNL     1      24.659  17.932 -12.059  1.00  0.00     0.071 C 
ATOM     15  O   UNL     1      23.680  18.626 -11.666  1.00  0.00    -0.545 OA
ATOM     16  O   UNL     1      25.534  17.317 -11.385  1.00  0.00    -0.545 OA
ENDBRANCH   8  14
ENDBRANCH   1   2
BRANCH   1  17
ATOM     17  C   UNL     1      22.575  16.125 -16.668  1.00  0.00     0.286 C 
ATOM     18  C   UNL     1      21.318  15.917 -15.804  1.00  0.00     0.202 C 
ATOM     19  O   UNL     1      22.232  16.188 -18.055  1.00  0.00    -0.341 OA
ATOM     20  C   UNL     1      20.586  14.659 -16.260  1.00  0.00     0.179 C 
ATOM     21  C   UNL     1      21.609  14.976 -18.519  1.00  0.00     0.178 C 
ATOM     22  C   UNL     1      20.302  14.714 -17.762  1.00  0.00     0.177 C 
BRANCH  18  23
ATOM     23  O   UNL     1      21.631  15.767 -14.412  1.00  0.00    -0.385 OA
ATOM     24  H   UNL     1      21.169  16.498 -13.945  1.00  0.00     0.211 HD
ENDBRANCH  18  23
BRANCH  20  25
ATOM     25  O   UNL     1      19.343  14.516 -15.552  1.00  0.00    -0.387 OA
ATOM     26  H   UNL     1      18.686  14.325 -16.256  1.00  0.00     0.211 HD
ENDBRANCH  20  25
BRANCH  21  27
ATOM     27  C   UNL     1      21.357  15.139 -20.022  1.00  0.00     0.191 C 
BRANCH  27  28
ATOM     28  O   UNL     1      21.243  13.853 -20.636  1.00  0.00    -0.394 OA
ATOM     29  H   UNL     1      22.140  13.465 -20.599  1.00  0.00     0.210 HD
ENDBRANCH  27  28
ENDBRANCH  21  27
BRANCH  22  30
ATOM     30  O   UNL     1      19.696  13.485 -18.170  1.00  0.00    -0.387 OA
ATOM     31  H   UNL     1      18.739  13.609 -17.999  1.00  0.00     0.211 HD
ENDBRANCH  22  30
ENDBRANCH   1  17
TORSDOF 10
ENDMDL
MODEL 9
REMARK VINA RESULT:    -6.668      2.234      7.122
REMARK INTER + INTRA:         -10.496
REMARK INTER:                  -9.727
REMARK INTRA:                  -0.769
REMARK UNBOUND:                -0.904
REMARK SMILES O=C([O-])C1=CO[C@@H](O[C@@H]2O[C@H](CO)[C@@H](O)[C@H](O)[C@H]2O)[C@@H]2[C@@H](CO)CC[C@H]12
REMARK SMILES IDX 8 1 7 2 24 3 25 4 21 5 26 6 20 7 4 8 5 9 6 10 22 11 23 12
REMARK SMILES IDX 2 14 1 15 3 16 9 17 18 18 10 19 16 20 11 21 14 22 19 23
REMARK SMILES IDX 17 25 12 27 13 28 15 30
REMARK H PARENT 23 13 19 24 17 26 13 29 15 31
ROOT
ATOM      1  O   UNL     1      22.263  18.624 -14.654  1.00  0.00    -0.310 OA
ENDROOT
BRANCH   1   2
ATOM      2  C   UNL     1      23.382  18.339 -15.509  1.00  0.00     0.313 C 
ATOM      3  C   UNL     1      26.706  20.163 -15.314  1.00  0.00     0.007 C 
ATOM      4  C   UNL     1      26.452  19.798 -13.853  1.00  0.00     0.009 C 
ATOM      5  C   UNL     1      25.720  19.309 -16.102  1.00  0.00     0.024 C 
ATOM      6  C   UNL     1      25.038  19.182 -13.785  1.00  0.00     0.034 C 
ATOM      7  C   UNL     1      24.468  19.374 -15.209  1.00  0.00     0.071 C 
ATOM      8  C   UNL     1      25.056  17.727 -13.397  1.00  0.00     0.013 C 
ATOM      9  C   UNL     1      24.526  16.774 -14.174  1.00  0.00     0.196 C 
ATOM     10  O   UNL     1      23.852  16.992 -15.349  1.00  0.00    -0.472 OA
BRANCH   5  11
ATOM     11  C   UNL     1      25.513  19.826 -17.519  1.00  0.00     0.160 C 
BRANCH  11  12
ATOM     12  O   UNL     1      25.059  18.788 -18.379  1.00  0.00    -0.396 OA
ATOM     13  H   UNL     1      24.370  18.296 -17.897  1.00  0.00     0.210 HD
ENDBRANCH  11  12
ENDBRANCH   5  11
BRANCH   8  14
ATOM     14  C   UNL     1      25.699  17.324 -12.054  1.00  0.00     0.071 C 
ATOM     15  O   UNL     1      24.987  17.505 -11.027  1.00  0.00    -0.545 OA
ATOM     16  O   UNL     1      26.873  16.863 -12.151  1.00  0.00    -0.545 OA
ENDBRANCH   8  14
ENDBRANCH   1   2
BRANCH   1  17
ATOM     17  C   UNL     1      21.318  17.561 -14.625  1.00  0.00     0.286 C 
ATOM     18  C   UNL     1      20.327  17.904 -13.498  1.00  0.00     0.202 C 
ATOM     19  O   UNL     1      20.643  17.482 -15.884  1.00  0.00    -0.341 OA
ATOM     20  C   UNL     1      19.204  16.872 -13.471  1.00  0.00     0.179 C 
ATOM     21  C   UNL     1      19.631  16.459 -15.899  1.00  0.00     0.178 C 
ATOM     22  C   UNL     1      18.553  16.748 -14.849  1.00  0.00     0.177 C 
BRANCH  18  23
ATOM     23  O   UNL     1      20.952  17.911 -12.206  1.00  0.00    -0.385 OA
ATOM     24  H   UNL     1      20.223  17.896 -11.547  1.00  0.00     0.211 HD
ENDBRANCH  18  23
BRANCH  20  25
ATOM     25  O   UNL     1      18.202  17.243 -12.510  1.00  0.00    -0.387 OA
ATOM     26  H   UNL     1      17.377  16.835 -12.853  1.00  0.00     0.211 HD
ENDBRANCH  20  25
BRANCH  21  27
ATOM     27  C   UNL     1      19.037  16.425 -17.312  1.00  0.00     0.191 C 
BRANCH  27  28
ATOM     28  O   UNL     1      18.429  15.153 -17.550  1.00  0.00    -0.394 OA
ATOM     29  H   UNL     1      17.829  15.004 -16.792  1.00  0.00     0.210 HD
ENDBRANCH  27  28
ENDBRANCH  21  27
BRANCH  22  30
ATOM     30  O   UNL     1      17.567  15.712 -14.810  1.00  0.00    -0.387 OA
ATOM     31  H   UNL     1      16.812  16.066 -15.324  1.00  0.00     0.211 HD
ENDBRANCH  22  30
ENDBRANCH   1  17
TORSDOF 10
ENDMDL
