MODEL 1
REMARK VINA RESULT:    -5.289      0.000      0.000
REMARK INTER + INTRA:          -6.650
REMARK INTER:                  -6.371
REMARK INTRA:                  -0.279
REMARK UNBOUND:                -0.279
REMARK SMILES O=C1O[C@H]([C@@H](O)CO)C([O-])=C1O
REMARK SMILES IDX 5 1 7 2 8 3 4 5 9 6 3 7 11 8 2 9 1 10 10 11 12 12 6 14
REMARK H PARENT 8 4 12 13 6 15
ROOT
ATOM      1  C   UNL     1      23.342  17.903 -12.392  1.00  0.00     0.184 C 
ENDROOT
BRANCH   1   2
ATOM      2  C   UNL     1      21.883  18.196 -12.759  1.00  0.00     0.192 C 
BRANCH   2   3
ATOM      3  O   UNL     1      21.111  18.278 -11.549  1.00  0.00    -0.394 OA
ATOM      4  H   UNL     1      20.212  18.501 -11.871  1.00  0.00     0.210 HD
ENDBRANCH   2   3
ENDBRANCH   1   2
BRANCH   1   5
ATOM      5  C   UNL     1      24.358  18.263 -13.502  1.00  0.00     0.227 C 
ATOM      6  C   UNL     1      25.797  18.339 -13.059  1.00  0.00    -0.037 C 
ATOM      7  O   UNL     1      24.064  19.564 -14.043  1.00  0.00    -0.450 OA
ATOM      8  C   UNL     1      26.254  19.554 -13.357  1.00  0.00     0.193 C 
ATOM      9  C   UNL     1      25.184  20.344 -13.984  1.00  0.00     0.373 C 
ATOM     10  O   UNL     1      25.250  21.497 -14.379  1.00  0.00    -0.243 OA
ATOM     11  O   UNL     1      26.305  17.320 -12.519  1.00  0.00    -0.870 OA
BRANCH   8  12
ATOM     12  O   UNL     1      27.533  19.968 -13.093  1.00  0.00    -0.502 OA
ATOM     13  H   UNL     1      27.557  20.802 -13.611  1.00  0.00     0.293 HD
ENDBRANCH   8  12
ENDBRANCH   1   5
BRANCH   1  14
ATOM     14  O   UNL     1      23.636  18.606 -11.164  1.00  0.00    -0.387 OA
ATOM     15  H   UNL     1      24.595  18.850 -11.272  1.00  0.00     0.211 HD
ENDBRANCH   1  14
TORSDOF 5
ENDMDL
MODEL 2
REMARK VINA RESULT:    -5.238      2.055      3.003
REMARK INTER + INTRA:          -6.589
REMARK INTER:                  -6.458
REMARK INTRA:                  -0.131
REMARK UNBOUND:                -0.279
REMARK SMILES O=C1O[C@H]([C@@H](O)CO)C([O-])=C1O
REMARK SMILES IDX 5 1 7 2 8 3 4 5 9 6 3 7 11 8 2 9 1 10 10 11 12 12 6 14
REMARK H PARENT 8 4 12 13 6 15
ROOT
ATOM      1  C   UNL     1      20.958  17.482 -12.872  1.00  0.00     0.184 C 
ENDROOT
BRANCH   1   2
ATOM      2  C   UNL     1      19.544  17.673 -13.432  1.00  0.00     0.192 C 
BRANCH   2   3
ATOM      3  O   UNL     1      18.607  17.037 -12.547  1.00  0.00    -0.394 OA
ATOM      4  H   UNL     1      19.177  16.471 -11.986  1.00  0.00     0.210 HD
ENDBRANCH   2   3
ENDBRANCH   1   2
BRANCH   1   5
ATOM      5  C   UNL     1      22.087  17.801 -13.880  1.00  0.00     0.227 C 
ATOM      6  C   UNL     1      23.057  16.677 -14.139  1.00  0.00    -0.037 C 
ATOM      7  O   UNL     1      22.895  18.889 -13.394  1.00  0.00    -0.450 OA
ATOM      8  C   UNL     1      24.281  17.118 -13.851  1.00  0.00     0.193 C 
ATOM      9  C   UNL     1      24.208  18.510 -13.385  1.00  0.00     0.373 C 
ATOM     10  O   UNL     1      25.135  19.223 -13.034  1.00  0.00    -0.243 OA
ATOM     11  O   UNL     1      22.597  15.581 -14.556  1.00  0.00    -0.870 OA
BRANCH   8  12
ATOM     12  O   UNL     1      25.410  16.352 -13.974  1.00  0.00    -0.502 OA
ATOM     13  H   UNL     1      26.084  16.980 -13.634  1.00  0.00     0.293 HD
ENDBRANCH   8  12
ENDBRANCH   1   5
BRANCH   1  14
ATOM     14  O   UNL     1      21.072  18.293 -11.681  1.00  0.00    -0.387 OA
ATOM     15  H   UNL     1      20.250  18.057 -11.173  1.00  0.00     0.211 HD
ENDBRANCH   1  14
TORSDOF 5
ENDMDL
MODEL 3
REMARK VINA RESULT:    -5.173      2.116      4.598
REMARK INTER + INTRA:          -6.510
REMARK INTER:                  -6.154
REMARK INTRA:                  -0.357
REMARK UNBOUND:                -0.279
REMARK SMILES O=C1O[C@H]([C@@H](O)CO)C([O-])=C1O
REMARK SMILES IDX 5 1 7 2 8 3 4 5 9 6 3 7 11 8 2 9 1 10 10 11 12 12 6 14
REMARK H PARENT 8 4 12 13 6 15
ROOT
ATOM      1  C   UNL     1      25.185  18.365 -12.613  1.00  0.00     0.184 C 
ENDROOT
BRANCH   1   2
ATOM      2  C   UNL     1      26.283  17.306 -12.468  1.00  0.00     0.192 C 
BRANCH   2   3
ATOM      3  O   UNL     1      27.563  17.958 -12.524  1.00  0.00    -0.394 OA
ATOM      4  H   UNL     1      27.498  18.641 -11.823  1.00  0.00     0.210 HD
ENDBRANCH   2   3
ENDBRANCH   1   2
BRANCH   1   5
ATOM      5  C   UNL     1      24.179  18.081 -13.754  1.00  0.00     0.227 C 
ATOM      6  C   UNL     1      22.731  18.035 -13.340  1.00  0.00    -0.037 C 
ATOM      7  O   UNL     1      24.443  16.794 -14.341  1.00  0.00    -0.450 OA
ATOM      8  C   UNL     1      22.241  16.847 -13.694  1.00  0.00     0.193 C 
ATOM      9  C   UNL     1      23.298  16.048 -14.332  1.00  0.00     0.373 C 
ATOM     10  O   UNL     1      23.203  14.914 -14.774  1.00  0.00    -0.243 OA
ATOM     11  O   UNL     1      22.244  19.047 -12.769  1.00  0.00    -0.870 OA
BRANCH   8  12
ATOM     12  O   UNL     1      20.946  16.464 -13.469  1.00  0.00    -0.502 OA
ATOM     13  H   UNL     1      20.848  16.725 -12.527  1.00  0.00     0.293 HD
ENDBRANCH   8  12
ENDBRANCH   1   5
BRANCH   1  14
ATOM     14  O   UNL     1      24.513  18.479 -11.338  1.00  0.00    -0.387 OA
ATOM     15  H   UNL     1      23.932  17.671 -11.321  1.00  0.00     0.211 HD
ENDBRANCH   1  14
TORSDOF 5
ENDMDL
MODEL 4
REMARK VINA RESULT:    -5.104      3.173      5.214
REMARK INTER + INTRA:          -6.427
REMARK INTER:                  -5.794
REMARK INTRA:                  -0.634
REMARK UNBOUND:                -0.279
REMARK SMILES O=C1O[C@H]([C@@H](O)CO)C([O-])=C1O
REMARK SMILES IDX 5 1 7 2 8 3 4 5 9 6 3 7 11 8 2 9 1 10 10 11 12 12 6 14
REMARK H PARENT 8 4 12 13 6 15
ROOT
ATOM      1  C   UNL     1      22.465  15.782 -15.405  1.00  0.00     0.184 C 
ENDROOT
BRANCH   1   2
ATOM      2  C   UNL     1      21.629  14.588 -15.879  1.00  0.00     0.192 C 
BRANCH   2   3
ATOM      3  O   UNL     1      21.205  13.836 -14.730  1.00  0.00    -0.394 OA
ATOM      4  H   UNL     1      20.885  14.529 -14.115  1.00  0.00     0.210 HD
ENDBRANCH   2   3
ENDBRANCH   1   2
BRANCH   1   5
ATOM      5  C   UNL     1      21.627  17.012 -14.980  1.00  0.00     0.227 C 
ATOM      6  C   UNL     1      22.111  17.724 -13.743  1.00  0.00    -0.037 C 
ATOM      7  O   UNL     1      20.277  16.614 -14.680  1.00  0.00    -0.450 OA
ATOM      8  C   UNL     1      21.110  17.742 -12.863  1.00  0.00     0.193 C 
ATOM      9  C   UNL     1      19.941  17.055 -13.431  1.00  0.00     0.373 C 
ATOM     10  O   UNL     1      18.855  16.881 -12.901  1.00  0.00    -0.243 OA
ATOM     11  O   UNL     1      23.293  18.160 -13.733  1.00  0.00    -0.870 OA
BRANCH   8  12
ATOM     12  O   UNL     1      21.202  18.315 -11.623  1.00  0.00    -0.502 OA
ATOM     13  H   UNL     1      21.498  19.219 -11.870  1.00  0.00     0.293 HD
ENDBRANCH   8  12
ENDBRANCH   1   5
BRANCH   1  14
ATOM     14  O   UNL     1      23.311  15.325 -14.326  1.00  0.00    -0.387 OA
ATOM     15  H   UNL     1      22.934  15.796 -13.534  1.00  0.00     0.211 HD
ENDBRANCH   1  14
TORSDOF 5
ENDMDL
MODEL 5
REMARK VINA RESULT:    -5.096      1.993      3.094
REMARK INTER + INTRA:          -6.417
REMARK INTER:                  -5.880
REMARK INTRA:                  -0.537
REMARK UNBOUND:                -0.279
REMARK SMILES O=C1O[C@H]([C@@H](O)CO)C([O-])=C1O
REMARK SMILES IDX 5 1 7 2 8 3 4 5 9 6 3 7 11 8 2 9 1 10 10 11 12 12 6 14
REMARK H PARENT 8 4 12 13 6 15
ROOT
ATOM      1  C   UNL     1      26.402  18.392 -13.520  1.00  0.00     0.184 C 
ENDROOT
BRANCH   1   2
ATOM      2  C   UNL     1      25.400  17.804 -12.521  1.00  0.00     0.192 C 
BRANCH   2   3
ATOM      3  O   UNL     1      24.936  18.856 -11.659  1.00  0.00    -0.394 OA
ATOM      4  H   UNL     1      24.223  18.426 -11.142  1.00  0.00     0.210 HD
ENDBRANCH   2   3
ENDBRANCH   1   2
BRANCH   1   5
ATOM      5  C   UNL     1      25.748  19.055 -14.756  1.00  0.00     0.227 C 
ATOM      6  C   UNL     1      26.635  20.002 -15.523  1.00  0.00    -0.037 C 
ATOM      7  O   UNL     1      24.614  19.845 -14.355  1.00  0.00    -0.450 OA
ATOM      8  C   UNL     1      26.029  21.188 -15.564  1.00  0.00     0.193 C 
ATOM      9  C   UNL     1      24.752  21.115 -14.841  1.00  0.00     0.373 C 
ATOM     10  O   UNL     1      23.943  22.014 -14.675  1.00  0.00    -0.243 OA
ATOM     11  O   UNL     1      27.726  19.560 -15.974  1.00  0.00    -0.870 OA
BRANCH   8  12
ATOM     12  O   UNL     1      26.557  22.287 -16.188  1.00  0.00    -0.502 OA
ATOM     13  H   UNL     1      26.168  23.003 -15.640  1.00  0.00     0.293 HD
ENDBRANCH   8  12
ENDBRANCH   1   5
BRANCH   1  14
ATOM     14  O   UNL     1      27.240  19.327 -12.804  1.00  0.00    -0.387 OA
ATOM     15  H   UNL     1      26.660  20.133 -12.732  1.00  0.00     0.211 HD
ENDBRANCH   1  14
TORSDOF 5
ENDMDL
MODEL 6
REMARK VINA RESULT:    -5.007      1.724      4.096
REMARK INTER + INTRA:          -6.310
REMARK INTER:                  -5.755
REMARK INTRA:                  -0.555
REMARK UNBOUND:                -0.279
REMARK SMILES O=C1O[C@H]([C@@H](O)CO)C([O-])=C1O
REMARK SMILES IDX 5 1 7 2 8 3 4 5 9 6 3 7 11 8 2 9 1 10 10 11 12 12 6 14
REMARK H PARENT 8 4 12 13 6 15
ROOT
ATOM      1  C   UNL     1      26.145  18.835 -13.989  1.00  0.00     0.184 C 
ENDROOT
BRANCH   1   2
ATOM      2  C   UNL     1      25.847  20.330 -13.831  1.00  0.00     0.192 C 
BRANCH   2   3
ATOM      3  O   UNL     1      26.399  20.781 -12.583  1.00  0.00    -0.394 OA
ATOM      4  H   UNL     1      26.987  21.519 -12.851  1.00  0.00     0.210 HD
ENDBRANCH   2   3
ENDBRANCH   1   2
BRANCH   1   5
ATOM      5  C   UNL     1      25.291  17.920 -13.080  1.00  0.00     0.227 C 
ATOM      6  C   UNL     1      24.459  16.891 -13.801  1.00  0.00    -0.037 C 
ATOM      7  O   UNL     1      24.348  18.705 -12.329  1.00  0.00    -0.450 OA
ATOM      8  C   UNL     1      23.186  17.076 -13.454  1.00  0.00     0.193 C 
ATOM      9  C   UNL     1      23.089  18.209 -12.522  1.00  0.00     0.373 C 
ATOM     10  O   UNL     1      22.078  18.659 -12.007  1.00  0.00    -0.243 OA
ATOM     11  O   UNL     1      25.049  16.077 -14.561  1.00  0.00    -0.870 OA
BRANCH   8  12
ATOM     12  O   UNL     1      22.153  16.311 -13.926  1.00  0.00    -0.502 OA
ATOM     13  H   UNL     1      21.649  16.988 -14.428  1.00  0.00     0.293 HD
ENDBRANCH   8  12
ENDBRANCH   1   5
BRANCH   1  14
ATOM     14  O   UNL     1      25.973  18.498 -15.384  1.00  0.00    -0.387 OA
ATOM     15  H   UNL     1      26.720  17.861 -15.552  1.00  0.00     0.211 HD
ENDBRANCH   1  14
TORSDOF 5
ENDMDL
MODEL 7
REMARK VINA RESULT:    -5.002      2.263      5.048
REMARK INTER + INTRA:          -6.305
REMARK INTER:                  -5.985
REMARK INTRA:                  -0.320
REMARK UNBOUND:                -0.279
REMARK SMILES O=C1O[C@H]([C@@H](O)CO)C([O-])=C1O
REMARK SMILES IDX 5 1 7 2 8 3 4 5 9 6 3 7 11 8 2 9 1 10 10 11 12 12 6 14
REMARK H PARENT 8 4 12 13 6 15
ROOT
ATOM      1  C   UNL     1      24.006  17.200 -13.192  1.00  0.00     0.184 C 
ENDROOT
BRANCH   1   2
ATOM      2  C   UNL     1      24.951  18.336 -12.784  1.00  0.00     0.192 C 
BRANCH   2   3
ATOM      3  O   UNL     1      24.649  18.725 -11.434  1.00  0.00    -0.394 OA
ATOM      4  H   UNL     1      24.007  19.456 -11.548  1.00  0.00     0.210 HD
ENDBRANCH   2   3
ENDBRANCH   1   2
BRANCH   1   5
ATOM      5  C   UNL     1      22.683  17.678 -13.836  1.00  0.00     0.227 C 
ATOM      6  C   UNL     1      21.538  17.884 -12.878  1.00  0.00    -0.037 C 
ATOM      7  O   UNL     1      22.209  16.703 -14.782  1.00  0.00    -0.450 OA
ATOM      8  C   UNL     1      20.525  17.118 -13.279  1.00  0.00     0.193 C 
ATOM      9  C   UNL     1      20.919  16.368 -14.481  1.00  0.00     0.373 C 
ATOM     10  O   UNL     1      20.243  15.571 -15.111  1.00  0.00    -0.243 OA
ATOM     11  O   UNL     1      21.702  18.687 -11.920  1.00  0.00    -0.870 OA
BRANCH   8  12
ATOM     12  O   UNL     1      19.318  17.059 -12.635  1.00  0.00    -0.502 OA
ATOM     13  H   UNL     1      19.620  16.927 -11.710  1.00  0.00     0.293 HD
ENDBRANCH   8  12
ENDBRANCH   1   5
BRANCH   1  14
ATOM     14  O   UNL     1      24.734  16.320 -14.078  1.00  0.00    -0.387 OA
ATOM     15  H   UNL     1      24.885  15.514 -13.514  1.00  0.00     0.211 HD
ENDBRANCH   1  14
TORSDOF 5
ENDMDL
MODEL 8
REMARK VINA RESULT:    -4.999      2.063      2.808
REMARK INTER + INTRA:          -6.301
REMARK INTER:                  -5.761
REMARK INTRA:                  -0.540
REMARK UNBOUND:                -0.279
REMARK SMILES O=C1O[C@H]([C@@H](O)CO)C([O-])=C1O
REMARK SMILES IDX 5 1 7 2 8 3 4 5 9 6 3 7 11 8 2 9 1 10 10 11 12 12 6 14
REMARK H PARENT 8 4 12 13 6 15
ROOT
ATOM      1  C   UNL     1      24.885  17.060 -13.639  1.00  0.00     0.184 C 
ENDROOT
BRANCH   1   2
ATOM      2  C   UNL     1      25.875  17.045 -12.469  1.00  0.00     0.192 C 
BRANCH   2   3
ATOM      3  O   UNL     1      25.248  17.650 -11.326  1.00  0.00    -0.394 OA
ATOM      4  H   UNL     1      24.578  16.986 -11.060  1.00  0.00     0.210 HD
ENDBRANCH   2   3
ENDBRANCH   1   2
BRANCH   1   5
ATOM      5  C   UNL     1      24.825  18.406 -14.400  1.00  0.00     0.227 C 
ATOM      6  C   UNL     1      25.956  18.651 -15.365  1.00  0.00    -0.037 C 
ATOM      7  O   UNL     1      24.878  19.505 -13.473  1.00  0.00    -0.450 OA
ATOM      8  C   UNL     1      26.552  19.791 -15.018  1.00  0.00     0.193 C 
ATOM      9  C   UNL     1      25.889  20.352 -13.832  1.00  0.00     0.373 C 
ATOM     10  O   UNL     1      26.174  21.383 -13.242  1.00  0.00    -0.243 OA
ATOM     11  O   UNL     1      26.148  17.807 -16.281  1.00  0.00    -0.870 OA
BRANCH   8  12
ATOM     12  O   UNL     1      27.625  20.319 -15.685  1.00  0.00    -0.502 OA
ATOM     13  H   UNL     1      28.321  19.672 -15.436  1.00  0.00     0.293 HD
ENDBRANCH   8  12
ENDBRANCH   1   5
BRANCH   1  14
ATOM     14  O   UNL     1      25.234  15.971 -14.523  1.00  0.00    -0.387 OA
ATOM     15  H   UNL     1      25.488  16.441 -15.363  1.00  0.00     0.211 HD
ENDBRANCH   1  14
TORSDOF 5
ENDMDL
MODEL 9
REMARK VINA RESULT:    -4.899      1.718      4.188
REMARK INTER + INTRA:          -6.181
REMARK INTER:                  -5.545
REMARK INTRA:                  -0.636
REMARK UNBOUND:                -0.279
REMARK SMILES O=C1O[C@H]([C@@H](O)CO)C([O-])=C1O
REMARK SMILES IDX 5 1 7 2 8 3 4 5 9 6 3 7 11 8 2 9 1 10 10 11 12 12 6 14
REMARK H PARENT 8 4 12 13 6 15
ROOT
ATOM      1  C   UNL     1      24.909  18.842 -15.642  1.00  0.00     0.184 C 
ENDROOT
BRANCH   1   2
ATOM      2  C   UNL     1      26.354  18.779 -16.149  1.00  0.00     0.192 C 
BRANCH   2   3
ATOM      3  O   UNL     1      27.204  19.449 -15.203  1.00  0.00    -0.394 OA
ATOM      4  H   UNL     1      26.577  19.753 -14.514  1.00  0.00     0.210 HD
ENDBRANCH   2   3
ENDBRANCH   1   2
BRANCH   1   5
ATOM      5  C   UNL     1      24.579  17.808 -14.539  1.00  0.00     0.227 C 
ATOM      6  C   UNL     1      23.873  18.362 -13.328  1.00  0.00    -0.037 C 
ATOM      7  O   UNL     1      25.790  17.220 -14.031  1.00  0.00    -0.450 OA
ATOM      8  C   UNL     1      24.612  18.076 -12.257  1.00  0.00     0.193 C 
ATOM      9  C   UNL     1      25.823  17.352 -12.671  1.00  0.00     0.373 C 
ATOM     10  O   UNL     1      26.720  16.940 -11.954  1.00  0.00    -0.243 OA
ATOM     11  O   UNL     1      22.778  18.961 -13.502  1.00  0.00    -0.870 OA
BRANCH   8  12
ATOM     12  O   UNL     1      24.265  18.432 -10.981  1.00  0.00    -0.502 OA
ATOM     13  H   UNL     1      23.298  18.265 -11.010  1.00  0.00     0.293 HD
ENDBRANCH   8  12
ENDBRANCH   1   5
BRANCH   1  14
ATOM     14  O   UNL     1      24.661  20.192 -15.188  1.00  0.00    -0.387 OA
ATOM     15  H   UNL     1      23.675  20.283 -15.293  1.00  0.00     0.211 HD
ENDBRANCH   1  14
TORSDOF 5
ENDMDL
