MODEL 1
REMARK VINA RESULT:    -5.652      0.000      0.000
REMARK INTER + INTRA:          -7.394
REMARK INTER:                  -7.139
REMARK INTRA:                  -0.255
REMARK UNBOUND:                -0.255
REMARK SMILES O=C([O-])[C@H](O)Cc1ccc(O)c(O)c1
REMARK SMILES IDX 6 1 7 2 8 3 9 4 10 5 14 6 12 7 11 8 13 10 4 12 2 13 1 14
REMARK SMILES IDX 3 15 5 16
REMARK H PARENT 11 9 13 11 5 17
ROOT
ATOM      1  C   UNL     1      24.976  17.145 -13.976  1.00  0.00     0.073 C 
ENDROOT
BRANCH   1   2
ATOM      2  C   UNL     1      23.484  16.882 -14.001  1.00  0.00    -0.041 A 
ATOM      3  C   UNL     1      22.949  15.838 -14.776  1.00  0.00     0.008 A 
ATOM      4  C   UNL     1      21.572  15.597 -14.789  1.00  0.00     0.050 A 
ATOM      5  C   UNL     1      20.737  16.391 -14.019  1.00  0.00     0.157 A 
ATOM      6  C   UNL     1      22.622  17.674 -13.228  1.00  0.00     0.054 A 
ATOM      7  C   UNL     1      21.257  17.419 -13.237  1.00  0.00     0.157 A 
BRANCH   5   8
ATOM      8  O   UNL     1      19.390  16.157 -14.020  1.00  0.00    -0.504 OA
ATOM      9  H   UNL     1      19.009  17.031 -14.238  1.00  0.00     0.293 HD
ENDBRANCH   5   8
BRANCH   7  10
ATOM     10  O   UNL     1      20.390  18.159 -12.477  1.00  0.00    -0.504 OA
ATOM     11  H   UNL     1      20.681  18.049 -11.553  1.00  0.00     0.293 HD
ENDBRANCH   7  10
ENDBRANCH   1   2
BRANCH   1  12
ATOM     12  C   UNL     1      25.392  18.124 -12.878  1.00  0.00     0.164 C 
BRANCH  12  13
ATOM     13  C   UNL     1      25.937  19.455 -13.482  1.00  0.00     0.070 C 
ATOM     14  O   UNL     1      25.013  20.239 -13.870  1.00  0.00    -0.547 OA
ATOM     15  O   UNL     1      27.189  19.597 -13.527  1.00  0.00    -0.547 OA
ENDBRANCH  12  13
BRANCH  12  16
ATOM     16  O   UNL     1      26.440  17.511 -12.072  1.00  0.00    -0.387 OA
ATOM     17  H   UNL     1      26.146  17.748 -11.156  1.00  0.00     0.211 HD
ENDBRANCH  12  16
ENDBRANCH   1  12
TORSDOF 6
ENDMDL
MODEL 2
REMARK VINA RESULT:    -5.586      2.287      5.386
REMARK INTER + INTRA:          -7.311
REMARK INTER:                  -7.132
REMARK INTRA:                  -0.179
REMARK UNBOUND:                -0.255
REMARK SMILES O=C([O-])[C@H](O)Cc1ccc(O)c(O)c1
REMARK SMILES IDX 6 1 7 2 8 3 9 4 10 5 14 6 12 7 11 8 13 10 4 12 2 13 1 14
REMARK SMILES IDX 3 15 5 16
REMARK H PARENT 11 9 13 11 5 17
ROOT
ATOM      1  C   UNL     1      22.399  15.544 -15.528  1.00  0.00     0.073 C 
ENDROOT
BRANCH   1   2
ATOM      2  C   UNL     1      23.017  16.381 -14.426  1.00  0.00    -0.041 A 
ATOM      3  C   UNL     1      24.410  16.407 -14.236  1.00  0.00     0.008 A 
ATOM      4  C   UNL     1      24.974  17.186 -13.222  1.00  0.00     0.050 A 
ATOM      5  C   UNL     1      24.146  17.946 -12.411  1.00  0.00     0.157 A 
ATOM      6  C   UNL     1      22.197  17.157 -13.594  1.00  0.00     0.054 A 
ATOM      7  C   UNL     1      22.767  17.938 -12.598  1.00  0.00     0.157 A 
BRANCH   5   8
ATOM      8  O   UNL     1      24.690  18.717 -11.421  1.00  0.00    -0.504 OA
ATOM      9  H   UNL     1      24.049  19.449 -11.327  1.00  0.00     0.293 HD
ENDBRANCH   5   8
BRANCH   7  10
ATOM     10  O   UNL     1      21.997  18.725 -11.783  1.00  0.00    -0.504 OA
ATOM     11  H   UNL     1      22.406  19.610 -11.798  1.00  0.00     0.293 HD
ENDBRANCH   7  10
ENDBRANCH   1   2
BRANCH   1  12
ATOM     12  C   UNL     1      21.442  14.475 -15.000  1.00  0.00     0.164 C 
BRANCH  12  13
ATOM     13  C   UNL     1      21.761  13.076 -15.612  1.00  0.00     0.070 C 
ATOM     14  O   UNL     1      21.607  13.039 -16.874  1.00  0.00    -0.547 OA
ATOM     15  O   UNL     1      22.114  12.166 -14.813  1.00  0.00    -0.547 OA
ENDBRANCH  12  13
BRANCH  12  16
ATOM     16  O   UNL     1      20.078  14.844 -15.359  1.00  0.00    -0.387 OA
ATOM     17  H   UNL     1      20.229  15.685 -15.862  1.00  0.00     0.211 HD
ENDBRANCH  12  16
ENDBRANCH   1  12
TORSDOF 6
ENDMDL
MODEL 3
REMARK VINA RESULT:    -5.563      1.492      5.197
REMARK INTER + INTRA:          -7.281
REMARK INTER:                  -7.065
REMARK INTRA:                  -0.216
REMARK UNBOUND:                -0.255
REMARK SMILES O=C([O-])[C@H](O)Cc1ccc(O)c(O)c1
REMARK SMILES IDX 6 1 7 2 8 3 9 4 10 5 14 6 12 7 11 8 13 10 4 12 2 13 1 14
REMARK SMILES IDX 3 15 5 16
REMARK H PARENT 11 9 13 11 5 17
ROOT
ATOM      1  C   UNL     1      21.562  16.608 -14.391  1.00  0.00     0.073 C 
ENDROOT
BRANCH   1   2
ATOM      2  C   UNL     1      22.949  16.904 -13.855  1.00  0.00    -0.041 A 
ATOM      3  C   UNL     1      24.090  16.365 -14.474  1.00  0.00     0.008 A 
ATOM      4  C   UNL     1      25.366  16.648 -13.979  1.00  0.00     0.050 A 
ATOM      5  C   UNL     1      25.498  17.477 -12.876  1.00  0.00     0.157 A 
ATOM      6  C   UNL     1      23.103  17.742 -12.741  1.00  0.00     0.054 A 
ATOM      7  C   UNL     1      24.375  18.027 -12.264  1.00  0.00     0.157 A 
BRANCH   5   8
ATOM      8  O   UNL     1      26.743  17.765 -12.390  1.00  0.00    -0.504 OA
ATOM      9  H   UNL     1      26.889  17.070 -11.717  1.00  0.00     0.293 HD
ENDBRANCH   5   8
BRANCH   7  10
ATOM     10  O   UNL     1      24.563  18.859 -11.192  1.00  0.00    -0.504 OA
ATOM     11  H   UNL     1      24.929  19.687 -11.554  1.00  0.00     0.293 HD
ENDBRANCH   7  10
ENDBRANCH   1   2
BRANCH   1  12
ATOM     12  C   UNL     1      20.690  17.857 -14.514  1.00  0.00     0.164 C 
BRANCH  12  13
ATOM     13  C   UNL     1      19.518  17.834 -13.484  1.00  0.00     0.070 C 
ATOM     14  O   UNL     1      18.829  18.904 -13.492  1.00  0.00    -0.547 OA
ATOM     15  O   UNL     1      19.396  16.799 -12.775  1.00  0.00    -0.547 OA
ENDBRANCH  12  13
BRANCH  12  16
ATOM     16  O   UNL     1      20.131  17.912 -15.859  1.00  0.00    -0.387 OA
ATOM     17  H   UNL     1      20.343  17.004 -16.196  1.00  0.00     0.211 HD
ENDBRANCH  12  16
ENDBRANCH   1  12
TORSDOF 6
ENDMDL
MODEL 4
REMARK VINA RESULT:    -5.484      1.599      5.572
REMARK INTER + INTRA:          -7.182
REMARK INTER:                  -7.045
REMARK INTRA:                  -0.137
REMARK UNBOUND:                -0.255
REMARK SMILES O=C([O-])[C@H](O)Cc1ccc(O)c(O)c1
REMARK SMILES IDX 6 1 7 2 8 3 9 4 10 5 14 6 12 7 11 8 13 10 4 12 2 13 1 14
REMARK SMILES IDX 3 15 5 16
REMARK H PARENT 11 9 13 11 5 17
ROOT
ATOM      1  C   UNL     1      22.446  18.502 -13.821  1.00  0.00     0.073 C 
ENDROOT
BRANCH   1   2
ATOM      2  C   UNL     1      23.919  18.392 -13.478  1.00  0.00    -0.041 A 
ATOM      3  C   UNL     1      24.376  17.420 -12.571  1.00  0.00     0.008 A 
ATOM      4  C   UNL     1      25.735  17.319 -12.263  1.00  0.00     0.050 A 
ATOM      5  C   UNL     1      26.634  18.181 -12.873  1.00  0.00     0.157 A 
ATOM      6  C   UNL     1      24.844  19.254 -14.084  1.00  0.00     0.054 A 
ATOM      7  C   UNL     1      26.194  19.138 -13.782  1.00  0.00     0.157 A 
BRANCH   5   8
ATOM      8  O   UNL     1      27.967  18.085 -12.583  1.00  0.00    -0.504 OA
ATOM      9  H   UNL     1      28.280  17.384 -13.190  1.00  0.00     0.293 HD
ENDBRANCH   5   8
BRANCH   7  10
ATOM     10  O   UNL     1      27.127  19.949 -14.373  1.00  0.00    -0.504 OA
ATOM     11  H   UNL     1      27.199  19.649 -15.298  1.00  0.00     0.293 HD
ENDBRANCH   7  10
ENDBRANCH   1   2
BRANCH   1  12
ATOM     12  C   UNL     1      21.556  17.663 -12.905  1.00  0.00     0.164 C 
BRANCH  12  13
ATOM     13  C   UNL     1      20.197  17.323 -13.592  1.00  0.00     0.070 C 
ATOM     14  O   UNL     1      19.351  16.809 -12.792  1.00  0.00    -0.547 OA
ATOM     15  O   UNL     1      20.094  17.578 -14.822  1.00  0.00    -0.547 OA
ENDBRANCH  12  13
BRANCH  12  16
ATOM     16  O   UNL     1      21.290  18.417 -11.686  1.00  0.00    -0.387 OA
ATOM     17  H   UNL     1      20.437  18.867 -11.917  1.00  0.00     0.211 HD
ENDBRANCH  12  16
ENDBRANCH   1  12
TORSDOF 6
ENDMDL
MODEL 5
REMARK VINA RESULT:    -5.378      1.011      2.082
REMARK INTER + INTRA:          -7.048
REMARK INTER:                  -6.848
REMARK INTRA:                  -0.200
REMARK UNBOUND:                -0.255
REMARK SMILES O=C([O-])[C@H](O)Cc1ccc(O)c(O)c1
REMARK SMILES IDX 6 1 7 2 8 3 9 4 10 5 14 6 12 7 11 8 13 10 4 12 2 13 1 14
REMARK SMILES IDX 3 15 5 16
REMARK H PARENT 11 9 13 11 5 17
ROOT
ATOM      1  C   UNL     1      24.972  16.618 -14.271  1.00  0.00     0.073 C 
ENDROOT
BRANCH   1   2
ATOM      2  C   UNL     1      23.466  16.458 -14.215  1.00  0.00    -0.041 A 
ATOM      3  C   UNL     1      22.661  17.427 -13.592  1.00  0.00     0.008 A 
ATOM      4  C   UNL     1      21.272  17.277 -13.550  1.00  0.00     0.050 A 
ATOM      5  C   UNL     1      20.692  16.166 -14.142  1.00  0.00     0.157 A 
ATOM      6  C   UNL     1      22.860  15.341 -14.809  1.00  0.00     0.054 A 
ATOM      7  C   UNL     1      21.478  15.206 -14.773  1.00  0.00     0.157 A 
BRANCH   5   8
ATOM      8  O   UNL     1      19.334  16.015 -14.112  1.00  0.00    -0.504 OA
ATOM      9  H   UNL     1      19.205  15.079 -14.366  1.00  0.00     0.293 HD
ENDBRANCH   5   8
BRANCH   7  10
ATOM     10  O   UNL     1      20.852  14.140 -15.362  1.00  0.00    -0.504 OA
ATOM     11  H   UNL     1      20.410  13.655 -14.640  1.00  0.00     0.293 HD
ENDBRANCH   7  10
ENDBRANCH   1   2
BRANCH   1  12
ATOM     12  C   UNL     1      25.533  17.399 -13.082  1.00  0.00     0.164 C 
BRANCH  12  13
ATOM     13  C   UNL     1      26.008  18.821 -13.512  1.00  0.00     0.070 C 
ATOM     14  O   UNL     1      26.958  18.794 -14.358  1.00  0.00    -0.547 OA
ATOM     15  O   UNL     1      25.425  19.807 -12.984  1.00  0.00    -0.547 OA
ENDBRANCH  12  13
BRANCH  12  16
ATOM     16  O   UNL     1      26.671  16.671 -12.534  1.00  0.00    -0.387 OA
ATOM     17  H   UNL     1      26.994  17.305 -11.844  1.00  0.00     0.211 HD
ENDBRANCH  12  16
ENDBRANCH   1  12
TORSDOF 6
ENDMDL
MODEL 6
REMARK VINA RESULT:    -5.364      1.526      5.225
REMARK INTER + INTRA:          -7.030
REMARK INTER:                  -6.770
REMARK INTRA:                  -0.260
REMARK UNBOUND:                -0.255
REMARK SMILES O=C([O-])[C@H](O)Cc1ccc(O)c(O)c1
REMARK SMILES IDX 6 1 7 2 8 3 9 4 10 5 14 6 12 7 11 8 13 10 4 12 2 13 1 14
REMARK SMILES IDX 3 15 5 16
REMARK H PARENT 11 9 13 11 5 17
ROOT
ATOM      1  C   UNL     1      23.590  16.792 -13.647  1.00  0.00     0.073 C 
ENDROOT
BRANCH   1   2
ATOM      2  C   UNL     1      24.690  17.682 -14.191  1.00  0.00    -0.041 A 
ATOM      3  C   UNL     1      24.920  17.780 -15.575  1.00  0.00     0.008 A 
ATOM      4  C   UNL     1      25.931  18.607 -16.070  1.00  0.00     0.050 A 
ATOM      5  C   UNL     1      26.700  19.344 -15.183  1.00  0.00     0.157 A 
ATOM      6  C   UNL     1      25.478  18.436 -13.310  1.00  0.00     0.054 A 
ATOM      7  C   UNL     1      26.473  19.265 -13.812  1.00  0.00     0.157 A 
BRANCH   5   8
ATOM      8  O   UNL     1      27.687  20.162 -15.659  1.00  0.00    -0.504 OA
ATOM      9  H   UNL     1      28.507  19.670 -15.454  1.00  0.00     0.293 HD
ENDBRANCH   5   8
BRANCH   7  10
ATOM     10  O   UNL     1      27.246  20.032 -12.981  1.00  0.00    -0.504 OA
ATOM     11  H   UNL     1      27.422  19.483 -12.194  1.00  0.00     0.293 HD
ENDBRANCH   7  10
ENDBRANCH   1   2
BRANCH   1  12
ATOM     12  C   UNL     1      22.193  17.237 -14.080  1.00  0.00     0.164 C 
BRANCH  12  13
ATOM     13  C   UNL     1      21.666  18.399 -13.182  1.00  0.00     0.070 C 
ATOM     14  O   UNL     1      21.135  17.989 -12.100  1.00  0.00    -0.547 OA
ATOM     15  O   UNL     1      21.809  19.573 -13.617  1.00  0.00    -0.547 OA
ENDBRANCH  12  13
BRANCH  12  16
ATOM     16  O   UNL     1      21.281  16.106 -13.967  1.00  0.00    -0.387 OA
ATOM     17  H   UNL     1      21.914  15.359 -13.814  1.00  0.00     0.211 HD
ENDBRANCH  12  16
ENDBRANCH   1  12
TORSDOF 6
ENDMDL
MODEL 7
REMARK VINA RESULT:    -5.342      2.313      5.739
REMARK INTER + INTRA:          -7.002
REMARK INTER:                  -6.818
REMARK INTRA:                  -0.184
REMARK UNBOUND:                -0.255
REMARK SMILES O=C([O-])[C@H](O)Cc1ccc(O)c(O)c1
REMARK SMILES IDX 6 1 7 2 8 3 9 4 10 5 14 6 12 7 11 8 13 10 4 12 2 13 1 14
REMARK SMILES IDX 3 15 5 16
REMARK H PARENT 11 9 13 11 5 17
ROOT
ATOM      1  C   UNL     1      22.270  15.431 -15.648  1.00  0.00     0.073 C 
ENDROOT
BRANCH   1   2
ATOM      2  C   UNL     1      22.922  16.279 -14.575  1.00  0.00    -0.041 A 
ATOM      3  C   UNL     1      22.157  17.152 -13.782  1.00  0.00     0.008 A 
ATOM      4  C   UNL     1      22.763  17.927 -12.790  1.00  0.00     0.050 A 
ATOM      5  C   UNL     1      24.129  17.817 -12.584  1.00  0.00     0.157 A 
ATOM      6  C   UNL     1      24.303  16.182 -14.350  1.00  0.00     0.054 A 
ATOM      7  C   UNL     1      24.895  16.946 -13.353  1.00  0.00     0.157 A 
BRANCH   5   8
ATOM      8  O   UNL     1      24.730  18.565 -11.610  1.00  0.00    -0.504 OA
ATOM      9  H   UNL     1      25.518  18.930 -12.059  1.00  0.00     0.293 HD
ENDBRANCH   5   8
BRANCH   7  10
ATOM     10  O   UNL     1      26.237  16.859 -13.093  1.00  0.00    -0.504 OA
ATOM     11  H   UNL     1      26.332  16.960 -12.128  1.00  0.00     0.293 HD
ENDBRANCH   7  10
ENDBRANCH   1   2
BRANCH   1  12
ATOM     12  C   UNL     1      21.358  14.345 -15.078  1.00  0.00     0.164 C 
BRANCH  12  13
ATOM     13  C   UNL     1      21.740  12.936 -15.630  1.00  0.00     0.070 C 
ATOM     14  O   UNL     1      21.678  12.866 -16.899  1.00  0.00    -0.547 OA
ATOM     15  O   UNL     1      22.048  12.052 -14.786  1.00  0.00    -0.547 OA
ENDBRANCH  12  13
BRANCH  12  16
ATOM     16  O   UNL     1      19.981  14.638 -15.456  1.00  0.00    -0.387 OA
ATOM     17  H   UNL     1      19.974  15.629 -15.417  1.00  0.00     0.211 HD
ENDBRANCH  12  16
ENDBRANCH   1  12
TORSDOF 6
ENDMDL
MODEL 8
REMARK VINA RESULT:    -5.326      2.092      5.323
REMARK INTER + INTRA:          -6.983
REMARK INTER:                  -6.738
REMARK INTRA:                  -0.245
REMARK UNBOUND:                -0.255
REMARK SMILES O=C([O-])[C@H](O)Cc1ccc(O)c(O)c1
REMARK SMILES IDX 6 1 7 2 8 3 9 4 10 5 14 6 12 7 11 8 13 10 4 12 2 13 1 14
REMARK SMILES IDX 3 15 5 16
REMARK H PARENT 11 9 13 11 5 17
ROOT
ATOM      1  C   UNL     1      21.881  16.182 -14.576  1.00  0.00     0.073 C 
ENDROOT
BRANCH   1   2
ATOM      2  C   UNL     1      23.194  16.700 -14.025  1.00  0.00    -0.041 A 
ATOM      3  C   UNL     1      24.412  16.392 -14.655  1.00  0.00     0.008 A 
ATOM      4  C   UNL     1      25.619  16.878 -14.145  1.00  0.00     0.050 A 
ATOM      5  C   UNL     1      25.603  17.681 -13.015  1.00  0.00     0.157 A 
ATOM      6  C   UNL     1      23.199  17.515 -12.883  1.00  0.00     0.054 A 
ATOM      7  C   UNL     1      24.401  18.004 -12.391  1.00  0.00     0.157 A 
BRANCH   5   8
ATOM      8  O   UNL     1      26.778  18.168 -12.514  1.00  0.00    -0.504 OA
ATOM      9  H   UNL     1      27.434  17.920 -13.195  1.00  0.00     0.293 HD
ENDBRANCH   5   8
BRANCH   7  10
ATOM     10  O   UNL     1      24.440  18.821 -11.291  1.00  0.00    -0.504 OA
ATOM     11  H   UNL     1      25.250  19.357 -11.382  1.00  0.00     0.293 HD
ENDBRANCH   7  10
ENDBRANCH   1   2
BRANCH   1  12
ATOM     12  C   UNL     1      22.030  14.856 -15.323  1.00  0.00     0.164 C 
BRANCH  12  13
ATOM     13  C   UNL     1      21.582  14.990 -16.811  1.00  0.00     0.070 C 
ATOM     14  O   UNL     1      20.822  14.041 -17.189  1.00  0.00    -0.547 OA
ATOM     15  O   UNL     1      22.015  15.983 -17.455  1.00  0.00    -0.547 OA
ENDBRANCH  12  13
BRANCH  12  16
ATOM     16  O   UNL     1      21.198  13.852 -14.672  1.00  0.00    -0.387 OA
ATOM     17  H   UNL     1      21.434  13.990 -13.719  1.00  0.00     0.211 HD
ENDBRANCH  12  16
ENDBRANCH   1  12
TORSDOF 6
ENDMDL
MODEL 9
REMARK VINA RESULT:    -5.268      7.327      8.956
REMARK INTER + INTRA:          -6.908
REMARK INTER:                  -6.715
REMARK INTRA:                  -0.193
REMARK UNBOUND:                -0.255
REMARK SMILES O=C([O-])[C@H](O)Cc1ccc(O)c(O)c1
REMARK SMILES IDX 6 1 7 2 8 3 9 4 10 5 14 6 12 7 11 8 13 10 4 12 2 13 1 14
REMARK SMILES IDX 3 15 5 16
REMARK H PARENT 11 9 13 11 5 17
ROOT
ATOM      1  C   UNL     1      18.159  15.133 -17.984  1.00  0.00     0.073 C 
ENDROOT
BRANCH   1   2
ATOM      2  C   UNL     1      19.340  15.132 -18.935  1.00  0.00    -0.041 A 
ATOM      3  C   UNL     1      19.672  16.282 -19.672  1.00  0.00     0.008 A 
ATOM      4  C   UNL     1      20.765  16.276 -20.543  1.00  0.00     0.050 A 
ATOM      5  C   UNL     1      21.530  15.126 -20.663  1.00  0.00     0.157 A 
ATOM      6  C   UNL     1      20.127  13.979 -19.070  1.00  0.00     0.054 A 
ATOM      7  C   UNL     1      21.219  13.987 -19.927  1.00  0.00     0.157 A 
BRANCH   5   8
ATOM      8  O   UNL     1      22.606  15.114 -21.506  1.00  0.00    -0.504 OA
ATOM      9  H   UNL     1      23.360  14.939 -20.909  1.00  0.00     0.293 HD
ENDBRANCH   5   8
BRANCH   7  10
ATOM     10  O   UNL     1      22.021  12.885 -20.067  1.00  0.00    -0.504 OA
ATOM     11  H   UNL     1      21.522  12.138 -19.687  1.00  0.00     0.293 HD
ENDBRANCH   7  10
ENDBRANCH   1   2
BRANCH   1  12
ATOM     12  C   UNL     1      18.024  13.829 -17.199  1.00  0.00     0.164 C 
BRANCH  12  13
ATOM     13  C   UNL     1      16.526  13.443 -16.994  1.00  0.00     0.070 C 
ATOM     14  O   UNL     1      15.748  14.450 -17.000  1.00  0.00    -0.547 OA
ATOM     15  O   UNL     1      16.262  12.220 -16.841  1.00  0.00    -0.547 OA
ENDBRANCH  12  13
BRANCH  12  16
ATOM     16  O   UNL     1      18.647  13.997 -15.893  1.00  0.00    -0.387 OA
ATOM     17  H   UNL     1      19.545  13.609 -16.053  1.00  0.00     0.211 HD
ENDBRANCH  12  16
ENDBRANCH   1  12
TORSDOF 6
ENDMDL
