MODEL 1
REMARK VINA RESULT:    -9.086      0.000      0.000
REMARK INTER + INTRA:         -16.119
REMARK INTER:                 -15.194
REMARK INTRA:                  -0.926
REMARK UNBOUND:                -0.926
REMARK SMILES C[C@@H]1O[C@@H](OC[C@H]2O[C@@H](OCC(O)c3ccc(O)c(O)c3)[C@H](O)[C@@H](O)[C@@H]2O)[C@H](O)[C@H](O)[C@H]1O
REMARK SMILES IDX 7 1 26 2 24 3 22 4 9 5 8 6 6 7 5 8 4 9 2 10 32 11 3 12 30 13
REMARK SMILES IDX 28 14 1 15 33 16 31 18 29 20 27 22 25 24 10 26 11 27 12 28
REMARK SMILES IDX 14 29 21 30 15 31 19 32 16 33 17 34 20 35 18 37 13 39 23 41
REMARK H PARENT 33 17 31 19 29 21 27 23 25 25 20 36 18 38 13 40 23 42
ROOT
ATOM      1  C   UNL     1      20.788  17.121 -14.561  1.00  0.00     0.178 C 
ATOM      2  C   UNL     1      19.784  17.124 -13.399  1.00  0.00     0.177 C 
ATOM      3  C   UNL     1      18.438  17.665 -13.877  1.00  0.00     0.179 C 
ATOM      4  C   UNL     1      17.963  16.895 -15.103  1.00  0.00     0.202 C 
ATOM      5  C   UNL     1      19.057  16.920 -16.187  1.00  0.00     0.282 C 
ATOM      6  O   UNL     1      20.268  16.361 -15.674  1.00  0.00    -0.341 OA
ENDROOT
BRANCH   1   7
ATOM      7  C   UNL     1      22.124  16.506 -14.117  1.00  0.00     0.198 C 
BRANCH   7   8
ATOM      8  O   UNL     1      23.182  17.427 -14.409  1.00  0.00    -0.347 OA
BRANCH   8   9
ATOM      9  C   UNL     1      23.434  18.346 -13.343  1.00  0.00     0.281 C 
ATOM     10  C   UNL     1      24.840  19.741 -14.694  1.00  0.00     0.150 C 
ATOM     11  C   UNL     1      26.089  19.404 -13.863  1.00  0.00     0.174 C 
ATOM     12  O   UNL     1      23.659  19.653 -13.896  1.00  0.00    -0.344 OA
ATOM     13  C   UNL     1      25.926  18.010 -13.240  1.00  0.00     0.179 C 
ATOM     14  C   UNL     1      24.618  17.909 -12.455  1.00  0.00     0.202 C 
ATOM     15  C   UNL     1      24.900  21.157 -15.257  1.00  0.00     0.041 C 
BRANCH  11  16
ATOM     16  O   UNL     1      27.289  19.430 -14.663  1.00  0.00    -0.388 OA
ATOM     17  H   UNL     1      27.915  18.828 -14.216  1.00  0.00     0.211 HD
ENDBRANCH  11  16
BRANCH  13  18
ATOM     18  O   UNL     1      27.022  17.748 -12.345  1.00  0.00    -0.387 OA
ATOM     19  H   UNL     1      27.430  16.918 -12.664  1.00  0.00     0.211 HD
ENDBRANCH  13  18
BRANCH  14  20
ATOM     20  O   UNL     1      24.717  18.725 -11.275  1.00  0.00    -0.385 OA
ATOM     21  H   UNL     1      24.340  18.171 -10.560  1.00  0.00     0.211 HD
ENDBRANCH  14  20
ENDBRANCH   8   9
ENDBRANCH   7   8
ENDBRANCH   1   7
BRANCH   2  22
ATOM     22  O   UNL     1      20.251  17.927 -12.313  1.00  0.00    -0.387 OA
ATOM     23  H   UNL     1      21.119  17.547 -12.066  1.00  0.00     0.211 HD
ENDBRANCH   2  22
BRANCH   3  24
ATOM     24  O   UNL     1      17.483  17.552 -12.812  1.00  0.00    -0.387 OA
ATOM     25  H   UNL     1      17.606  16.648 -12.454  1.00  0.00     0.211 HD
ENDBRANCH   3  24
BRANCH   5  26
ATOM     26  O   UNL     1      18.558  16.124 -17.266  1.00  0.00    -0.347 OA
BRANCH  26  27
ATOM     27  C   UNL     1      19.484  15.161 -17.784  1.00  0.00     0.200 C 
BRANCH  27  28
ATOM     28  C   UNL     1      19.356  13.728 -17.223  1.00  0.00     0.170 C 
BRANCH  28  29
ATOM     29  C   UNL     1      18.006  13.038 -17.310  1.00  0.00    -0.013 A 
ATOM     30  C   UNL     1      17.947  11.761 -17.900  1.00  0.00     0.056 A 
ATOM     31  C   UNL     1      16.806  13.619 -16.865  1.00  0.00     0.010 A 
ATOM     32  C   UNL     1      16.737  11.084 -18.002  1.00  0.00     0.157 A 
ATOM     33  C   UNL     1      15.588  12.943 -16.989  1.00  0.00     0.050 A 
ATOM     34  C   UNL     1      15.564  11.679 -17.557  1.00  0.00     0.157 A 
BRANCH  32  35
ATOM     35  O   UNL     1      16.664   9.816 -18.511  1.00  0.00    -0.504 OA
ATOM     36  H   UNL     1      17.243   9.240 -17.961  1.00  0.00     0.293 HD
ENDBRANCH  32  35
BRANCH  34  37
ATOM     37  O   UNL     1      14.375  11.018 -17.667  1.00  0.00    -0.504 OA
ATOM     38  H   UNL     1      13.890  11.503 -18.364  1.00  0.00     0.293 HD
ENDBRANCH  34  37
ENDBRANCH  28  29
BRANCH  28  39
ATOM     39  O   UNL     1      19.829  13.695 -15.873  1.00  0.00    -0.386 OA
ATOM     40  H   UNL     1      19.060  13.924 -15.307  1.00  0.00     0.211 HD
ENDBRANCH  28  39
ENDBRANCH  27  28
ENDBRANCH  26  27
ENDBRANCH   5  26
BRANCH   4  41
ATOM     41  O   UNL     1      16.740  17.484 -15.575  1.00  0.00    -0.385 OA
ATOM     42  H   UNL     1      16.030  16.895 -15.251  1.00  0.00     0.211 HD
ENDBRANCH   4  41
TORSDOF 16
ENDMDL
MODEL 2
REMARK VINA RESULT:    -8.786      1.482      2.526
REMARK INTER + INTRA:         -15.619
REMARK INTER:                 -14.249
REMARK INTRA:                  -1.369
REMARK UNBOUND:                -0.926
REMARK SMILES C[C@@H]1O[C@@H](OC[C@H]2O[C@@H](OCC(O)c3ccc(O)c(O)c3)[C@H](O)[C@@H](O)[C@@H]2O)[C@H](O)[C@H](O)[C@H]1O
REMARK SMILES IDX 7 1 26 2 24 3 22 4 9 5 8 6 6 7 5 8 4 9 2 10 32 11 3 12 30 13
REMARK SMILES IDX 28 14 1 15 33 16 31 18 29 20 27 22 25 24 10 26 11 27 12 28
REMARK SMILES IDX 14 29 21 30 15 31 19 32 16 33 17 34 20 35 18 37 13 39 23 41
REMARK H PARENT 33 17 31 19 29 21 27 23 25 25 20 36 18 38 13 40 23 42
ROOT
ATOM      1  C   UNL     1      21.595  18.936 -15.838  1.00  0.00     0.178 C 
ATOM      2  C   UNL     1      21.603  19.082 -14.310  1.00  0.00     0.177 C 
ATOM      3  C   UNL     1      20.473  18.252 -13.704  1.00  0.00     0.179 C 
ATOM      4  C   UNL     1      20.556  16.809 -14.188  1.00  0.00     0.202 C 
ATOM      5  C   UNL     1      20.584  16.781 -15.728  1.00  0.00     0.282 C 
ATOM      6  O   UNL     1      21.690  17.545 -16.213  1.00  0.00    -0.341 OA
ENDROOT
BRANCH   1   7
ATOM      7  C   UNL     1      22.775  19.702 -16.459  1.00  0.00     0.198 C 
BRANCH   7   8
ATOM      8  O   UNL     1      23.781  19.898 -15.458  1.00  0.00    -0.347 OA
BRANCH   8   9
ATOM      9  C   UNL     1      25.042  19.326 -15.813  1.00  0.00     0.281 C 
ATOM     10  C   UNL     1      24.811  17.513 -14.261  1.00  0.00     0.150 C 
ATOM     11  C   UNL     1      25.986  18.009 -13.401  1.00  0.00     0.174 C 
ATOM     12  O   UNL     1      24.979  17.902 -15.625  1.00  0.00    -0.344 OA
ATOM     13  C   UNL     1      26.114  19.532 -13.546  1.00  0.00     0.179 C 
ATOM     14  C   UNL     1      26.213  19.939 -15.016  1.00  0.00     0.202 C 
ATOM     15  C   UNL     1      24.696  15.993 -14.237  1.00  0.00     0.041 C 
BRANCH  11  16
ATOM     16  O   UNL     1      25.809  17.677 -12.009  1.00  0.00    -0.388 OA
ATOM     17  H   UNL     1      26.632  17.960 -11.565  1.00  0.00     0.211 HD
ENDBRANCH  11  16
BRANCH  13  18
ATOM     18  O   UNL     1      27.297  19.985 -12.862  1.00  0.00    -0.387 OA
ATOM     19  H   UNL     1      27.855  19.190 -12.746  1.00  0.00     0.211 HD
ENDBRANCH  13  18
BRANCH  14  20
ATOM     20  O   UNL     1      27.483  19.507 -15.536  1.00  0.00    -0.385 OA
ATOM     21  H   UNL     1      28.141  19.850 -14.896  1.00  0.00     0.211 HD
ENDBRANCH  14  20
ENDBRANCH   8   9
ENDBRANCH   7   8
ENDBRANCH   1   7
BRANCH   2  22
ATOM     22  O   UNL     1      21.442  20.446 -13.918  1.00  0.00    -0.387 OA
ATOM     23  H   UNL     1      20.511  20.521 -13.623  1.00  0.00     0.211 HD
ENDBRANCH   2  22
BRANCH   3  24
ATOM     24  O   UNL     1      20.569  18.307 -12.272  1.00  0.00    -0.387 OA
ATOM     25  H   UNL     1      20.999  19.164 -12.078  1.00  0.00     0.211 HD
ENDBRANCH   3  24
BRANCH   5  26
ATOM     26  O   UNL     1      20.729  15.405 -16.092  1.00  0.00    -0.347 OA
BRANCH  26  27
ATOM     27  C   UNL     1      19.869  14.967 -17.151  1.00  0.00     0.200 C 
BRANCH  27  28
ATOM     28  C   UNL     1      19.662  13.442 -17.269  1.00  0.00     0.170 C 
BRANCH  28  29
ATOM     29  C   UNL     1      18.241  12.910 -17.318  1.00  0.00    -0.013 A 
ATOM     30  C   UNL     1      18.022  11.645 -17.900  1.00  0.00     0.056 A 
ATOM     31  C   UNL     1      17.126  13.624 -16.846  1.00  0.00     0.010 A 
ATOM     32  C   UNL     1      16.740  11.111 -17.967  1.00  0.00     0.157 A 
ATOM     33  C   UNL     1      15.836  13.090 -16.935  1.00  0.00     0.050 A 
ATOM     34  C   UNL     1      15.654  11.836 -17.495  1.00  0.00     0.157 A 
BRANCH  32  35
ATOM     35  O   UNL     1      16.510   9.858 -18.468  1.00  0.00    -0.504 OA
ATOM     36  H   UNL     1      17.381   9.403 -18.543  1.00  0.00     0.293 HD
ENDBRANCH  32  35
BRANCH  34  37
ATOM     37  O   UNL     1      14.395  11.314 -17.572  1.00  0.00    -0.504 OA
ATOM     38  H   UNL     1      14.013  11.716 -18.377  1.00  0.00     0.293 HD
ENDBRANCH  34  37
ENDBRANCH  28  29
BRANCH  28  39
ATOM     39  O   UNL     1      20.392  12.775 -16.235  1.00  0.00    -0.386 OA
ATOM     40  H   UNL     1      21.168  13.342 -16.037  1.00  0.00     0.211 HD
ENDBRANCH  28  39
ENDBRANCH  27  28
ENDBRANCH  26  27
ENDBRANCH   5  26
BRANCH   4  41
ATOM     41  O   UNL     1      19.433  16.080 -13.667  1.00  0.00    -0.385 OA
ATOM     42  H   UNL     1      19.493  16.177 -12.696  1.00  0.00     0.211 HD
ENDBRANCH   4  41
TORSDOF 16
ENDMDL
MODEL 3
REMARK VINA RESULT:    -8.566      2.851      3.962
REMARK INTER + INTRA:         -15.250
REMARK INTER:                 -13.529
REMARK INTRA:                  -1.721
REMARK UNBOUND:                -0.926
REMARK SMILES C[C@@H]1O[C@@H](OC[C@H]2O[C@@H](OCC(O)c3ccc(O)c(O)c3)[C@H](O)[C@@H](O)[C@@H]2O)[C@H](O)[C@H](O)[C@H]1O
REMARK SMILES IDX 7 1 26 2 24 3 22 4 9 5 8 6 6 7 5 8 4 9 2 10 32 11 3 12 30 13
REMARK SMILES IDX 28 14 1 15 33 16 31 18 29 20 27 22 25 24 10 26 11 27 12 28
REMARK SMILES IDX 14 29 21 30 15 31 19 32 16 33 17 34 20 35 18 37 13 39 23 41
REMARK H PARENT 33 17 31 19 29 21 27 23 25 25 20 36 18 38 13 40 23 42
ROOT
ATOM      1  C   UNL     1      21.159  18.757 -14.343  1.00  0.00     0.178 C 
ATOM      2  C   UNL     1      20.780  17.766 -13.233  1.00  0.00     0.177 C 
ATOM      3  C   UNL     1      19.287  17.451 -13.307  1.00  0.00     0.179 C 
ATOM      4  C   UNL     1      18.912  16.984 -14.708  1.00  0.00     0.202 C 
ATOM      5  C   UNL     1      19.374  18.028 -15.743  1.00  0.00     0.282 C 
ATOM      6  O   UNL     1      20.783  18.235 -15.636  1.00  0.00    -0.341 OA
ENDROOT
BRANCH   1   7
ATOM      7  C   UNL     1      22.673  19.024 -14.333  1.00  0.00     0.198 C 
BRANCH   7   8
ATOM      8  O   UNL     1      23.347  17.866 -13.826  1.00  0.00    -0.347 OA
BRANCH   8   9
ATOM      9  C   UNL     1      24.414  17.425 -14.670  1.00  0.00     0.281 C 
ATOM     10  C   UNL     1      26.061  17.665 -12.946  1.00  0.00     0.150 C 
ATOM     11  C   UNL     1      26.777  18.803 -13.692  1.00  0.00     0.174 C 
ATOM     12  O   UNL     1      25.413  16.782 -13.863  1.00  0.00    -0.344 OA
ATOM     13  C   UNL     1      25.766  19.545 -14.577  1.00  0.00     0.179 C 
ATOM     14  C   UNL     1      25.024  18.576 -15.498  1.00  0.00     0.202 C 
ATOM     15  C   UNL     1      27.036  16.826 -12.126  1.00  0.00     0.041 C 
BRANCH  11  16
ATOM     16  O   UNL     1      27.391  19.738 -12.783  1.00  0.00    -0.388 OA
ATOM     17  H   UNL     1      26.983  20.604 -12.982  1.00  0.00     0.211 HD
ENDBRANCH  11  16
BRANCH  13  18
ATOM     18  O   UNL     1      26.453  20.516 -15.388  1.00  0.00    -0.387 OA
ATOM     19  H   UNL     1      27.302  20.686 -14.933  1.00  0.00     0.211 HD
ENDBRANCH  13  18
BRANCH  14  20
ATOM     20  O   UNL     1      25.941  18.079 -16.489  1.00  0.00    -0.385 OA
ATOM     21  H   UNL     1      25.985  17.114 -16.322  1.00  0.00     0.211 HD
ENDBRANCH  14  20
ENDBRANCH   8   9
ENDBRANCH   7   8
ENDBRANCH   1   7
BRANCH   2  22
ATOM     22  O   UNL     1      21.082  18.295 -11.940  1.00  0.00    -0.387 OA
ATOM     23  H   UNL     1      21.401  19.207 -12.103  1.00  0.00     0.211 HD
ENDBRANCH   2  22
BRANCH   3  24
ATOM     24  O   UNL     1      18.975  16.438 -12.339  1.00  0.00    -0.387 OA
ATOM     25  H   UNL     1      18.165  16.755 -11.890  1.00  0.00     0.211 HD
ENDBRANCH   3  24
BRANCH   5  26
ATOM     26  O   UNL     1      19.044  17.481 -17.024  1.00  0.00    -0.347 OA
BRANCH  26  27
ATOM     27  C   UNL     1      20.169  17.082 -17.816  1.00  0.00     0.200 C 
BRANCH  27  28
ATOM     28  C   UNL     1      20.248  15.582 -18.173  1.00  0.00     0.170 C 
BRANCH  28  29
ATOM     29  C   UNL     1      20.808  14.623 -17.138  1.00  0.00    -0.013 A 
ATOM     30  C   UNL     1      21.742  15.119 -16.208  1.00  0.00     0.056 A 
ATOM     31  C   UNL     1      20.473  13.260 -17.079  1.00  0.00     0.010 A 
ATOM     32  C   UNL     1      22.284  14.284 -15.237  1.00  0.00     0.157 A 
ATOM     33  C   UNL     1      21.038  12.419 -16.113  1.00  0.00     0.050 A 
ATOM     34  C   UNL     1      21.939  12.940 -15.199  1.00  0.00     0.157 A 
BRANCH  32  35
ATOM     35  O   UNL     1      23.143  14.756 -14.282  1.00  0.00    -0.504 OA
ATOM     36  H   UNL     1      22.635  14.845 -13.442  1.00  0.00     0.293 HD
ENDBRANCH  32  35
BRANCH  34  37
ATOM     37  O   UNL     1      22.480  12.119 -14.252  1.00  0.00    -0.504 OA
ATOM     38  H   UNL     1      23.446  12.236 -14.351  1.00  0.00     0.293 HD
ENDBRANCH  34  37
ENDBRANCH  28  29
BRANCH  28  39
ATOM     39  O   UNL     1      20.944  15.417 -19.412  1.00  0.00    -0.386 OA
ATOM     40  H   UNL     1      20.871  14.466 -19.643  1.00  0.00     0.211 HD
ENDBRANCH  28  39
ENDBRANCH  27  28
ENDBRANCH  26  27
ENDBRANCH   5  26
BRANCH   4  41
ATOM     41  O   UNL     1      17.491  16.779 -14.763  1.00  0.00    -0.385 OA
ATOM     42  H   UNL     1      17.293  16.161 -14.031  1.00  0.00     0.211 HD
ENDBRANCH   4  41
TORSDOF 16
ENDMDL
MODEL 4
REMARK VINA RESULT:    -8.542      1.460      2.131
REMARK INTER + INTRA:         -15.210
REMARK INTER:                 -13.836
REMARK INTRA:                  -1.374
REMARK UNBOUND:                -0.926
REMARK SMILES C[C@@H]1O[C@@H](OC[C@H]2O[C@@H](OCC(O)c3ccc(O)c(O)c3)[C@H](O)[C@@H](O)[C@@H]2O)[C@H](O)[C@H](O)[C@H]1O
REMARK SMILES IDX 7 1 26 2 24 3 22 4 9 5 8 6 6 7 5 8 4 9 2 10 32 11 3 12 30 13
REMARK SMILES IDX 28 14 1 15 33 16 31 18 29 20 27 22 25 24 10 26 11 27 12 28
REMARK SMILES IDX 14 29 21 30 15 31 19 32 16 33 17 34 20 35 18 37 13 39 23 41
REMARK H PARENT 33 17 31 19 29 21 27 23 25 25 20 36 18 38 13 40 23 42
ROOT
ATOM      1  C   UNL     1      22.530  16.920 -14.213  1.00  0.00     0.178 C 
ATOM      2  C   UNL     1      21.554  17.556 -13.212  1.00  0.00     0.177 C 
ATOM      3  C   UNL     1      20.135  17.516 -13.775  1.00  0.00     0.179 C 
ATOM      4  C   UNL     1      19.765  16.095 -14.182  1.00  0.00     0.202 C 
ATOM      5  C   UNL     1      20.828  15.540 -15.149  1.00  0.00     0.282 C 
ATOM      6  O   UNL     1      22.117  15.574 -14.535  1.00  0.00    -0.341 OA
ENDROOT
BRANCH   1   7
ATOM      7  C   UNL     1      23.951  16.880 -13.629  1.00  0.00     0.198 C 
BRANCH   7   8
ATOM      8  O   UNL     1      24.807  17.708 -14.427  1.00  0.00    -0.347 OA
BRANCH   8   9
ATOM      9  C   UNL     1      25.291  18.854 -13.723  1.00  0.00     0.281 C 
ATOM     10  C   UNL     1      24.333  20.392 -15.293  1.00  0.00     0.150 C 
ATOM     11  C   UNL     1      25.713  20.876 -15.766  1.00  0.00     0.174 C 
ATOM     12  O   UNL     1      24.386  19.950 -13.936  1.00  0.00    -0.344 OA
ATOM     13  C   UNL     1      26.740  19.751 -15.575  1.00  0.00     0.179 C 
ATOM     14  C   UNL     1      26.729  19.235 -14.136  1.00  0.00     0.202 C 
ATOM     15  C   UNL     1      23.289  21.502 -15.365  1.00  0.00     0.041 C 
BRANCH  11  16
ATOM     16  O   UNL     1      25.696  21.275 -17.152  1.00  0.00    -0.388 OA
ATOM     17  H   UNL     1      24.867  21.778 -17.270  1.00  0.00     0.211 HD
ENDBRANCH  11  16
BRANCH  13  18
ATOM     18  O   UNL     1      28.058  20.243 -15.878  1.00  0.00    -0.387 OA
ATOM     19  H   UNL     1      28.299  20.830 -15.133  1.00  0.00     0.211 HD
ENDBRANCH  13  18
BRANCH  14  20
ATOM     20  O   UNL     1      27.271  20.249 -13.271  1.00  0.00    -0.385 OA
ATOM     21  H   UNL     1      27.375  21.034 -13.848  1.00  0.00     0.211 HD
ENDBRANCH  14  20
ENDBRANCH   8   9
ENDBRANCH   7   8
ENDBRANCH   1   7
BRANCH   2  22
ATOM     22  O   UNL     1      21.908  18.912 -12.933  1.00  0.00    -0.387 OA
ATOM     23  H   UNL     1      21.493  19.438 -13.647  1.00  0.00     0.211 HD
ENDBRANCH   2  22
BRANCH   3  24
ATOM     24  O   UNL     1      19.223  18.006 -12.780  1.00  0.00    -0.387 OA
ATOM     25  H   UNL     1      19.511  18.925 -12.602  1.00  0.00     0.211 HD
ENDBRANCH   3  24
BRANCH   5  26
ATOM     26  O   UNL     1      20.441  14.190 -15.425  1.00  0.00    -0.347 OA
BRANCH  26  27
ATOM     27  C   UNL     1      20.729  13.739 -16.753  1.00  0.00     0.200 C 
BRANCH  27  28
ATOM     28  C   UNL     1      19.619  13.968 -17.802  1.00  0.00     0.170 C 
BRANCH  28  29
ATOM     29  C   UNL     1      18.286  13.270 -17.604  1.00  0.00    -0.013 A 
ATOM     30  C   UNL     1      18.139  11.960 -18.100  1.00  0.00     0.056 A 
ATOM     31  C   UNL     1      17.179  13.872 -16.982  1.00  0.00     0.010 A 
ATOM     32  C   UNL     1      16.940  11.275 -17.941  1.00  0.00     0.157 A 
ATOM     33  C   UNL     1      15.967  13.185 -16.845  1.00  0.00     0.050 A 
ATOM     34  C   UNL     1      15.858  11.890 -17.325  1.00  0.00     0.157 A 
BRANCH  32  35
ATOM     35  O   UNL     1      16.793   9.979 -18.356  1.00  0.00    -0.504 OA
ATOM     36  H   UNL     1      17.584   9.747 -18.896  1.00  0.00     0.293 HD
ENDBRANCH  32  35
BRANCH  34  37
ATOM     37  O   UNL     1      14.678  11.220 -17.180  1.00  0.00    -0.504 OA
ATOM     38  H   UNL     1      14.299  11.571 -16.350  1.00  0.00     0.293 HD
ENDBRANCH  34  37
ENDBRANCH  28  29
BRANCH  28  39
ATOM     39  O   UNL     1      20.125  13.681 -19.110  1.00  0.00    -0.386 OA
ATOM     40  H   UNL     1      19.474  14.053 -19.743  1.00  0.00     0.211 HD
ENDBRANCH  28  39
ENDBRANCH  27  28
ENDBRANCH  26  27
ENDBRANCH   5  26
BRANCH   4  41
ATOM     41  O   UNL     1      18.461  16.109 -14.783  1.00  0.00    -0.385 OA
ATOM     42  H   UNL     1      18.096  15.215 -14.626  1.00  0.00     0.211 HD
ENDBRANCH   4  41
TORSDOF 16
ENDMDL
MODEL 5
REMARK VINA RESULT:    -8.493      1.466      2.975
REMARK INTER + INTRA:         -15.128
REMARK INTER:                 -14.234
REMARK INTRA:                  -0.894
REMARK UNBOUND:                -0.926
REMARK SMILES C[C@@H]1O[C@@H](OC[C@H]2O[C@@H](OCC(O)c3ccc(O)c(O)c3)[C@H](O)[C@@H](O)[C@@H]2O)[C@H](O)[C@H](O)[C@H]1O
REMARK SMILES IDX 7 1 26 2 24 3 22 4 9 5 8 6 6 7 5 8 4 9 2 10 32 11 3 12 30 13
REMARK SMILES IDX 28 14 1 15 33 16 31 18 29 20 27 22 25 24 10 26 11 27 12 28
REMARK SMILES IDX 14 29 21 30 15 31 19 32 16 33 17 34 20 35 18 37 13 39 23 41
REMARK H PARENT 33 17 31 19 29 21 27 23 25 25 20 36 18 38 13 40 23 42
ROOT
ATOM      1  C   UNL     1      21.645  17.872 -15.365  1.00  0.00     0.178 C 
ATOM      2  C   UNL     1      21.947  18.003 -13.865  1.00  0.00     0.177 C 
ATOM      3  C   UNL     1      20.644  18.174 -13.087  1.00  0.00     0.179 C 
ATOM      4  C   UNL     1      19.671  17.052 -13.427  1.00  0.00     0.202 C 
ATOM      5  C   UNL     1      19.473  16.982 -14.953  1.00  0.00     0.282 C 
ATOM      6  O   UNL     1      20.730  16.780 -15.603  1.00  0.00    -0.341 OA
ENDROOT
BRANCH   1   7
ATOM      7  C   UNL     1      22.940  17.619 -16.155  1.00  0.00     0.198 C 
BRANCH   7   8
ATOM      8  O   UNL     1      23.891  16.976 -15.298  1.00  0.00    -0.347 OA
BRANCH   8   9
ATOM      9  C   UNL     1      25.244  17.179 -15.712  1.00  0.00     0.281 C 
ATOM     10  C   UNL     1      25.981  17.743 -13.502  1.00  0.00     0.150 C 
ATOM     11  C   UNL     1      26.299  19.193 -13.904  1.00  0.00     0.174 C 
ATOM     12  O   UNL     1      26.120  16.863 -14.618  1.00  0.00    -0.344 OA
ATOM     13  C   UNL     1      25.393  19.608 -15.071  1.00  0.00     0.179 C 
ATOM     14  C   UNL     1      25.494  18.612 -16.227  1.00  0.00     0.202 C 
ATOM     15  C   UNL     1      26.920  17.239 -12.411  1.00  0.00     0.041 C 
BRANCH  11  16
ATOM     16  O   UNL     1      26.110  20.108 -12.805  1.00  0.00    -0.388 OA
ATOM     17  H   UNL     1      26.913  20.664 -12.786  1.00  0.00     0.211 HD
ENDBRANCH  11  16
BRANCH  13  18
ATOM     18  O   UNL     1      25.783  20.908 -15.548  1.00  0.00    -0.387 OA
ATOM     19  H   UNL     1      26.109  20.768 -16.460  1.00  0.00     0.211 HD
ENDBRANCH  13  18
BRANCH  14  20
ATOM     20  O   UNL     1      26.793  18.731 -16.834  1.00  0.00    -0.385 OA
ATOM     21  H   UNL     1      26.642  19.279 -17.633  1.00  0.00     0.211 HD
ENDBRANCH  14  20
ENDBRANCH   8   9
ENDBRANCH   7   8
ENDBRANCH   1   7
BRANCH   2  22
ATOM     22  O   UNL     1      22.798  19.120 -13.603  1.00  0.00    -0.387 OA
ATOM     23  H   UNL     1      23.701  18.746 -13.533  1.00  0.00     0.211 HD
ENDBRANCH   2  22
BRANCH   3  24
ATOM     24  O   UNL     1      20.936  18.177 -11.681  1.00  0.00    -0.387 OA
ATOM     25  H   UNL     1      20.848  19.113 -11.405  1.00  0.00     0.211 HD
ENDBRANCH   3  24
BRANCH   5  26
ATOM     26  O   UNL     1      18.606  15.868 -15.185  1.00  0.00    -0.347 OA
BRANCH  26  27
ATOM     27  C   UNL     1      17.644  16.060 -16.230  1.00  0.00     0.200 C 
BRANCH  27  28
ATOM     28  C   UNL     1      16.438  15.096 -16.225  1.00  0.00     0.170 C 
BRANCH  28  29
ATOM     29  C   UNL     1      16.611  13.722 -16.846  1.00  0.00    -0.013 A 
ATOM     30  C   UNL     1      15.461  12.936 -17.058  1.00  0.00     0.056 A 
ATOM     31  C   UNL     1      17.859  13.177 -17.192  1.00  0.00     0.010 A 
ATOM     32  C   UNL     1      15.564  11.672 -17.627  1.00  0.00     0.157 A 
ATOM     33  C   UNL     1      17.959  11.895 -17.744  1.00  0.00     0.050 A 
ATOM     34  C   UNL     1      16.808  11.153 -17.958  1.00  0.00     0.157 A 
BRANCH  32  35
ATOM     35  O   UNL     1      14.457  10.917 -17.902  1.00  0.00    -0.504 OA
ATOM     36  H   UNL     1      14.661   9.986 -17.652  1.00  0.00     0.293 HD
ENDBRANCH  32  35
BRANCH  34  37
ATOM     37  O   UNL     1      16.908   9.908 -18.507  1.00  0.00    -0.504 OA
ATOM     38  H   UNL     1      17.871   9.751 -18.584  1.00  0.00     0.293 HD
ENDBRANCH  34  37
ENDBRANCH  28  29
BRANCH  28  39
ATOM     39  O   UNL     1      15.300  15.746 -16.799  1.00  0.00    -0.386 OA
ATOM     40  H   UNL     1      15.651  16.476 -17.354  1.00  0.00     0.211 HD
ENDBRANCH  28  39
ENDBRANCH  27  28
ENDBRANCH  26  27
ENDBRANCH   5  26
BRANCH   4  41
ATOM     41  O   UNL     1      18.430  17.291 -12.744  1.00  0.00    -0.385 OA
ATOM     42  H   UNL     1      18.672  17.797 -11.943  1.00  0.00     0.211 HD
ENDBRANCH   4  41
TORSDOF 16
ENDMDL
MODEL 6
REMARK VINA RESULT:    -8.447      1.789      3.040
REMARK INTER + INTRA:         -15.052
REMARK INTER:                 -13.737
REMARK INTRA:                  -1.315
REMARK UNBOUND:                -0.926
REMARK SMILES C[C@@H]1O[C@@H](OC[C@H]2O[C@@H](OCC(O)c3ccc(O)c(O)c3)[C@H](O)[C@@H](O)[C@@H]2O)[C@H](O)[C@H](O)[C@H]1O
REMARK SMILES IDX 7 1 26 2 24 3 22 4 9 5 8 6 6 7 5 8 4 9 2 10 32 11 3 12 30 13
REMARK SMILES IDX 28 14 1 15 33 16 31 18 29 20 27 22 25 24 10 26 11 27 12 28
REMARK SMILES IDX 14 29 21 30 15 31 19 32 16 33 17 34 20 35 18 37 13 39 23 41
REMARK H PARENT 33 17 31 19 29 21 27 23 25 25 20 36 18 38 13 40 23 42
ROOT
ATOM      1  C   UNL     1      22.753  17.633 -14.982  1.00  0.00     0.178 C 
ATOM      2  C   UNL     1      22.807  17.928 -13.476  1.00  0.00     0.177 C 
ATOM      3  C   UNL     1      21.396  18.173 -12.944  1.00  0.00     0.179 C 
ATOM      4  C   UNL     1      20.481  17.013 -13.315  1.00  0.00     0.202 C 
ATOM      5  C   UNL     1      20.534  16.776 -14.836  1.00  0.00     0.282 C 
ATOM      6  O   UNL     1      21.878  16.515 -15.246  1.00  0.00    -0.341 OA
ENDROOT
BRANCH   1   7
ATOM      7  C   UNL     1      24.156  17.306 -15.517  1.00  0.00     0.198 C 
BRANCH   7   8
ATOM      8  O   UNL     1      24.693  18.469 -16.160  1.00  0.00    -0.347 OA
BRANCH   8   9
ATOM      9  C   UNL     1      26.035  18.760 -15.759  1.00  0.00     0.281 C 
ATOM     10  C   UNL     1      25.583  21.095 -15.457  1.00  0.00     0.150 C 
ATOM     11  C   UNL     1      26.507  21.494 -16.619  1.00  0.00     0.174 C 
ATOM     12  O   UNL     1      26.021  19.876 -14.854  1.00  0.00    -0.344 OA
ATOM     13  C   UNL     1      26.569  20.347 -17.638  1.00  0.00     0.179 C 
ATOM     14  C   UNL     1      26.962  19.033 -16.962  1.00  0.00     0.202 C 
ATOM     15  C   UNL     1      25.560  22.156 -14.362  1.00  0.00     0.041 C 
BRANCH  11  16
ATOM     16  O   UNL     1      26.052  22.693 -17.279  1.00  0.00    -0.388 OA
ATOM     17  H   UNL     1      25.113  22.791 -17.027  1.00  0.00     0.211 HD
ENDBRANCH  11  16
BRANCH  13  18
ATOM     18  O   UNL     1      27.543  20.653 -18.652  1.00  0.00    -0.387 OA
ATOM     19  H   UNL     1      28.342  20.142 -18.413  1.00  0.00     0.211 HD
ENDBRANCH  13  18
BRANCH  14  20
ATOM     20  O   UNL     1      28.339  19.111 -16.554  1.00  0.00    -0.385 OA
ATOM     21  H   UNL     1      28.769  19.664 -17.240  1.00  0.00     0.211 HD
ENDBRANCH  14  20
ENDBRANCH   8   9
ENDBRANCH   7   8
ENDBRANCH   1   7
BRANCH   2  22
ATOM     22  O   UNL     1      23.615  19.074 -13.201  1.00  0.00    -0.387 OA
ATOM     23  H   UNL     1      24.376  18.735 -12.685  1.00  0.00     0.211 HD
ENDBRANCH   2  22
BRANCH   3  24
ATOM     24  O   UNL     1      21.454  18.332 -11.519  1.00  0.00    -0.387 OA
ATOM     25  H   UNL     1      21.871  17.510 -11.188  1.00  0.00     0.211 HD
ENDBRANCH   3  24
BRANCH   5  26
ATOM     26  O   UNL     1      19.705  15.637 -15.085  1.00  0.00    -0.347 OA
BRANCH  26  27
ATOM     27  C   UNL     1      19.475  15.349 -16.469  1.00  0.00     0.200 C 
BRANCH  27  28
ATOM     28  C   UNL     1      19.455  13.854 -16.856  1.00  0.00     0.170 C 
BRANCH  28  29
ATOM     29  C   UNL     1      18.109  13.183 -17.064  1.00  0.00    -0.013 A 
ATOM     30  C   UNL     1      18.080  11.940 -17.727  1.00  0.00     0.056 A 
ATOM     31  C   UNL     1      16.887  13.748 -16.660  1.00  0.00     0.010 A 
ATOM     32  C   UNL     1      16.874  11.281 -17.940  1.00  0.00     0.157 A 
ATOM     33  C   UNL     1      15.675  13.090 -16.896  1.00  0.00     0.050 A 
ATOM     34  C   UNL     1      15.679  11.860 -17.534  1.00  0.00     0.157 A 
BRANCH  32  35
ATOM     35  O   UNL     1      16.825  10.044 -18.524  1.00  0.00    -0.504 OA
ATOM     36  H   UNL     1      16.674  10.176 -19.488  1.00  0.00     0.293 HD
ENDBRANCH  32  35
BRANCH  34  37
ATOM     37  O   UNL     1      14.496  11.216 -17.753  1.00  0.00    -0.504 OA
ATOM     38  H   UNL     1      14.611  10.783 -18.622  1.00  0.00     0.293 HD
ENDBRANCH  34  37
ENDBRANCH  28  29
BRANCH  28  39
ATOM     39  O   UNL     1      20.230  13.103 -15.918  1.00  0.00    -0.386 OA
ATOM     40  H   UNL     1      20.902  13.722 -15.559  1.00  0.00     0.211 HD
ENDBRANCH  28  39
ENDBRANCH  27  28
ENDBRANCH  26  27
ENDBRANCH   5  26
BRANCH   4  41
ATOM     41  O   UNL     1      19.147  17.316 -12.874  1.00  0.00    -0.385 OA
ATOM     42  H   UNL     1      18.763  16.456 -12.612  1.00  0.00     0.211 HD
ENDBRANCH   4  41
TORSDOF 16
ENDMDL
MODEL 7
REMARK VINA RESULT:    -8.392      2.868      9.635
REMARK INTER + INTRA:         -14.959
REMARK INTER:                 -14.151
REMARK INTRA:                  -0.809
REMARK UNBOUND:                -0.926
REMARK SMILES C[C@@H]1O[C@@H](OC[C@H]2O[C@@H](OCC(O)c3ccc(O)c(O)c3)[C@H](O)[C@@H](O)[C@@H]2O)[C@H](O)[C@H](O)[C@H]1O
REMARK SMILES IDX 7 1 26 2 24 3 22 4 9 5 8 6 6 7 5 8 4 9 2 10 32 11 3 12 30 13
REMARK SMILES IDX 28 14 1 15 33 16 31 18 29 20 27 22 25 24 10 26 11 27 12 28
REMARK SMILES IDX 14 29 21 30 15 31 19 32 16 33 17 34 20 35 18 37 13 39 23 41
REMARK H PARENT 33 17 31 19 29 21 27 23 25 25 20 36 18 38 13 40 23 42
ROOT
ATOM      1  C   UNL     1      22.340  17.843 -14.281  1.00  0.00     0.178 C 
ATOM      2  C   UNL     1      22.827  18.596 -13.034  1.00  0.00     0.177 C 
ATOM      3  C   UNL     1      24.006  17.854 -12.408  1.00  0.00     0.179 C 
ATOM      4  C   UNL     1      25.093  17.611 -13.448  1.00  0.00     0.202 C 
ATOM      5  C   UNL     1      24.491  16.891 -14.669  1.00  0.00     0.282 C 
ATOM      6  O   UNL     1      23.424  17.667 -15.219  1.00  0.00    -0.341 OA
ENDROOT
BRANCH   1   7
ATOM      7  C   UNL     1      21.205  18.618 -14.968  1.00  0.00     0.198 C 
BRANCH   7   8
ATOM      8  O   UNL     1      20.219  17.687 -15.431  1.00  0.00    -0.347 OA
BRANCH   8   9
ATOM      9  C   UNL     1      19.668  16.887 -14.382  1.00  0.00     0.281 C 
ATOM     10  C   UNL     1      17.709  16.332 -15.647  1.00  0.00     0.150 C 
ATOM     11  C   UNL     1      16.787  17.107 -14.691  1.00  0.00     0.174 C 
ATOM     12  O   UNL     1      18.864  15.846 -14.960  1.00  0.00    -0.344 OA
ATOM     13  C   UNL     1      17.579  18.247 -14.034  1.00  0.00     0.179 C 
ATOM     14  C   UNL     1      18.853  17.721 -13.371  1.00  0.00     0.202 C 
ATOM     15  C   UNL     1      17.005  15.123 -16.255  1.00  0.00     0.041 C 
BRANCH  11  16
ATOM     16  O   UNL     1      15.643  17.655 -15.375  1.00  0.00    -0.388 OA
ATOM     17  H   UNL     1      15.374  16.975 -16.023  1.00  0.00     0.211 HD
ENDBRANCH  11  16
BRANCH  13  18
ATOM     18  O   UNL     1      16.767  18.885 -13.031  1.00  0.00    -0.387 OA
ATOM     19  H   UNL     1      16.027  19.301 -13.517  1.00  0.00     0.211 HD
ENDBRANCH  13  18
BRANCH  14  20
ATOM     20  O   UNL     1      18.492  16.941 -12.219  1.00  0.00    -0.385 OA
ATOM     21  H   UNL     1      18.963  16.090 -12.340  1.00  0.00     0.211 HD
ENDBRANCH  14  20
ENDBRANCH   8   9
ENDBRANCH   7   8
ENDBRANCH   1   7
BRANCH   2  22
ATOM     22  O   UNL     1      21.786  18.720 -12.064  1.00  0.00    -0.387 OA
ATOM     23  H   UNL     1      21.253  17.902 -12.152  1.00  0.00     0.211 HD
ENDBRANCH   2  22
BRANCH   3  24
ATOM     24  O   UNL     1      24.521  18.630 -11.316  1.00  0.00    -0.387 OA
ATOM     25  H   UNL     1      25.450  18.826 -11.558  1.00  0.00     0.211 HD
ENDBRANCH   3  24
BRANCH   5  26
ATOM     26  O   UNL     1      25.557  16.766 -15.616  1.00  0.00    -0.347 OA
BRANCH  26  27
ATOM     27  C   UNL     1      25.563  17.755 -16.652  1.00  0.00     0.200 C 
BRANCH  27  28
ATOM     28  C   UNL     1      26.421  19.011 -16.385  1.00  0.00     0.170 C 
BRANCH  28  29
ATOM     29  C   UNL     1      27.278  19.551 -17.515  1.00  0.00    -0.013 A 
ATOM     30  C   UNL     1      28.616  19.120 -17.602  1.00  0.00     0.056 A 
ATOM     31  C   UNL     1      26.819  20.485 -18.460  1.00  0.00     0.010 A 
ATOM     32  C   UNL     1      29.443  19.581 -18.620  1.00  0.00     0.157 A 
ATOM     33  C   UNL     1      27.662  20.962 -19.470  1.00  0.00     0.050 A 
ATOM     34  C   UNL     1      28.968  20.505 -19.542  1.00  0.00     0.157 A 
BRANCH  32  35
ATOM     35  O   UNL     1      30.725  19.128 -18.764  1.00  0.00    -0.504 OA
ATOM     36  H   UNL     1      31.325  19.794 -18.354  1.00  0.00     0.293 HD
ENDBRANCH  32  35
BRANCH  34  37
ATOM     37  O   UNL     1      29.784  20.966 -20.534  1.00  0.00    -0.504 OA
ATOM     38  H   UNL     1      30.232  21.742 -20.141  1.00  0.00     0.293 HD
ENDBRANCH  34  37
ENDBRANCH  28  29
BRANCH  28  39
ATOM     39  O   UNL     1      27.228  18.804 -15.222  1.00  0.00    -0.386 OA
ATOM     40  H   UNL     1      27.433  17.844 -15.198  1.00  0.00     0.211 HD
ENDBRANCH  28  39
ENDBRANCH  27  28
ENDBRANCH  26  27
ENDBRANCH   5  26
BRANCH   4  41
ATOM     41  O   UNL     1      26.146  16.840 -12.847  1.00  0.00    -0.385 OA
ATOM     42  H   UNL     1      26.972  17.310 -13.078  1.00  0.00     0.211 HD
ENDBRANCH   4  41
TORSDOF 16
ENDMDL
MODEL 8
REMARK VINA RESULT:    -8.374      1.538      2.419
REMARK INTER + INTRA:         -14.930
REMARK INTER:                 -13.627
REMARK INTRA:                  -1.303
REMARK UNBOUND:                -0.926
REMARK SMILES C[C@@H]1O[C@@H](OC[C@H]2O[C@@H](OCC(O)c3ccc(O)c(O)c3)[C@H](O)[C@@H](O)[C@@H]2O)[C@H](O)[C@H](O)[C@H]1O
REMARK SMILES IDX 7 1 26 2 24 3 22 4 9 5 8 6 6 7 5 8 4 9 2 10 32 11 3 12 30 13
REMARK SMILES IDX 28 14 1 15 33 16 31 18 29 20 27 22 25 24 10 26 11 27 12 28
REMARK SMILES IDX 14 29 21 30 15 31 19 32 16 33 17 34 20 35 18 37 13 39 23 41
REMARK H PARENT 33 17 31 19 29 21 27 23 25 25 20 36 18 38 13 40 23 42
ROOT
ATOM      1  C   UNL     1      20.778  17.413 -14.699  1.00  0.00     0.178 C 
ATOM      2  C   UNL     1      19.775  17.218 -13.553  1.00  0.00     0.177 C 
ATOM      3  C   UNL     1      18.470  17.942 -13.878  1.00  0.00     0.179 C 
ATOM      4  C   UNL     1      17.945  17.505 -15.240  1.00  0.00     0.202 C 
ATOM      5  C   UNL     1      19.041  17.703 -16.304  1.00  0.00     0.282 C 
ATOM      6  O   UNL     1      20.211  16.963 -15.949  1.00  0.00    -0.341 OA
ENDROOT
BRANCH   1   7
ATOM      7  C   UNL     1      22.069  16.626 -14.425  1.00  0.00     0.198 C 
BRANCH   7   8
ATOM      8  O   UNL     1      23.194  17.495 -14.608  1.00  0.00    -0.347 OA
BRANCH   8   9
ATOM      9  C   UNL     1      23.404  18.378 -13.503  1.00  0.00     0.281 C 
ATOM     10  C   UNL     1      24.834  19.833 -14.762  1.00  0.00     0.150 C 
ATOM     11  C   UNL     1      26.062  19.479 -13.906  1.00  0.00     0.174 C 
ATOM     12  O   UNL     1      23.631  19.706 -14.003  1.00  0.00    -0.344 OA
ATOM     13  C   UNL     1      25.895  18.063 -13.338  1.00  0.00     0.179 C 
ATOM     14  C   UNL     1      24.566  17.921 -12.596  1.00  0.00     0.202 C 
ATOM     15  C   UNL     1      24.896  21.268 -15.273  1.00  0.00     0.041 C 
BRANCH  11  16
ATOM     16  O   UNL     1      27.284  19.545 -14.668  1.00  0.00    -0.388 OA
ATOM     17  H   UNL     1      27.010  19.540 -15.605  1.00  0.00     0.211 HD
ENDBRANCH  11  16
BRANCH  13  18
ATOM     18  O   UNL     1      26.967  17.780 -12.420  1.00  0.00    -0.387 OA
ATOM     19  H   UNL     1      26.608  17.126 -11.788  1.00  0.00     0.211 HD
ENDBRANCH  13  18
BRANCH  14  20
ATOM     20  O   UNL     1      24.621  18.696 -11.386  1.00  0.00    -0.385 OA
ATOM     21  H   UNL     1      25.507  19.113 -11.400  1.00  0.00     0.211 HD
ENDBRANCH  14  20
ENDBRANCH   8   9
ENDBRANCH   7   8
ENDBRANCH   1   7
BRANCH   2  22
ATOM     22  O   UNL     1      20.293  17.720 -12.319  1.00  0.00    -0.387 OA
ATOM     23  H   UNL     1      19.585  17.564 -11.660  1.00  0.00     0.211 HD
ENDBRANCH   2  22
BRANCH   3  24
ATOM     24  O   UNL     1      17.507  17.652 -12.852  1.00  0.00    -0.387 OA
ATOM     25  H   UNL     1      18.021  17.239 -12.129  1.00  0.00     0.211 HD
ENDBRANCH   3  24
BRANCH   5  26
ATOM     26  O   UNL     1      18.491  17.208 -17.530  1.00  0.00    -0.347 OA
BRANCH  26  27
ATOM     27  C   UNL     1      19.387  17.236 -18.647  1.00  0.00     0.200 C 
BRANCH  27  28
ATOM     28  C   UNL     1      19.617  15.888 -19.364  1.00  0.00     0.170 C 
BRANCH  28  29
ATOM     29  C   UNL     1      19.905  14.662 -18.517  1.00  0.00    -0.013 A 
ATOM     30  C   UNL     1      18.817  13.871 -18.099  1.00  0.00     0.056 A 
ATOM     31  C   UNL     1      21.194  14.291 -18.098  1.00  0.00     0.010 A 
ATOM     32  C   UNL     1      19.025  12.735 -17.324  1.00  0.00     0.157 A 
ATOM     33  C   UNL     1      21.396  13.160 -17.300  1.00  0.00     0.050 A 
ATOM     34  C   UNL     1      20.309  12.390 -16.920  1.00  0.00     0.157 A 
BRANCH  32  35
ATOM     35  O   UNL     1      17.993  11.915 -16.960  1.00  0.00    -0.504 OA
ATOM     36  H   UNL     1      17.287  12.003 -17.642  1.00  0.00     0.293 HD
ENDBRANCH  32  35
BRANCH  34  37
ATOM     37  O   UNL     1      20.510  11.281 -16.151  1.00  0.00    -0.504 OA
ATOM     38  H   UNL     1      20.587  10.548 -16.794  1.00  0.00     0.293 HD
ENDBRANCH  34  37
ENDBRANCH  28  29
BRANCH  28  39
ATOM     39  O   UNL     1      20.636  16.039 -20.357  1.00  0.00    -0.386 OA
ATOM     40  H   UNL     1      20.294  16.693 -21.004  1.00  0.00     0.211 HD
ENDBRANCH  28  39
ENDBRANCH  27  28
ENDBRANCH  26  27
ENDBRANCH   5  26
BRANCH   4  41
ATOM     41  O   UNL     1      16.766  18.266 -15.548  1.00  0.00    -0.385 OA
ATOM     42  H   UNL     1      16.043  17.609 -15.594  1.00  0.00     0.211 HD
ENDBRANCH   4  41
TORSDOF 16
ENDMDL
MODEL 9
REMARK VINA RESULT:    -8.342      1.934      7.754
REMARK INTER + INTRA:         -14.876
REMARK INTER:                 -13.215
REMARK INTRA:                  -1.661
REMARK UNBOUND:                -0.926
REMARK SMILES C[C@@H]1O[C@@H](OC[C@H]2O[C@@H](OCC(O)c3ccc(O)c(O)c3)[C@H](O)[C@@H](O)[C@@H]2O)[C@H](O)[C@H](O)[C@H]1O
REMARK SMILES IDX 7 1 26 2 24 3 22 4 9 5 8 6 6 7 5 8 4 9 2 10 32 11 3 12 30 13
REMARK SMILES IDX 28 14 1 15 33 16 31 18 29 20 27 22 25 24 10 26 11 27 12 28
REMARK SMILES IDX 14 29 21 30 15 31 19 32 16 33 17 34 20 35 18 37 13 39 23 41
REMARK H PARENT 33 17 31 19 29 21 27 23 25 25 20 36 18 38 13 40 23 42
ROOT
ATOM      1  C   UNL     1      17.825  15.362 -17.371  1.00  0.00     0.178 C 
ATOM      2  C   UNL     1      17.620  13.902 -16.943  1.00  0.00     0.177 C 
ATOM      3  C   UNL     1      18.772  13.043 -17.460  1.00  0.00     0.179 C 
ATOM      4  C   UNL     1      20.109  13.632 -17.027  1.00  0.00     0.202 C 
ATOM      5  C   UNL     1      20.193  15.106 -17.469  1.00  0.00     0.282 C 
ATOM      6  O   UNL     1      19.106  15.848 -16.912  1.00  0.00    -0.341 OA
ENDROOT
BRANCH   1   7
ATOM      7  C   UNL     1      16.716  16.255 -16.792  1.00  0.00     0.198 C 
BRANCH   7   8
ATOM      8  O   UNL     1      17.236  17.574 -16.591  1.00  0.00    -0.347 OA
BRANCH   8   9
ATOM      9  C   UNL     1      16.671  18.231 -15.453  1.00  0.00     0.281 C 
ATOM     10  C   UNL     1      18.554  19.690 -15.189  1.00  0.00     0.150 C 
ATOM     11  C   UNL     1      18.946  19.054 -13.844  1.00  0.00     0.174 C 
ATOM     12  O   UNL     1      17.147  19.586 -15.411  1.00  0.00    -0.344 OA
ATOM     13  C   UNL     1      18.472  17.594 -13.815  1.00  0.00     0.179 C 
ATOM     14  C   UNL     1      16.980  17.493 -14.133  1.00  0.00     0.202 C 
ATOM     15  C   UNL     1      18.910  21.172 -15.237  1.00  0.00     0.041 C 
BRANCH  11  16
ATOM     16  O   UNL     1      20.370  19.098 -13.625  1.00  0.00    -0.388 OA
ATOM     17  H   UNL     1      20.539  18.493 -12.876  1.00  0.00     0.211 HD
ENDBRANCH  11  16
BRANCH  13  18
ATOM     18  O   UNL     1      18.704  17.036 -12.509  1.00  0.00    -0.387 OA
ATOM     19  H   UNL     1      17.899  16.524 -12.294  1.00  0.00     0.211 HD
ENDBRANCH  13  18
BRANCH  14  20
ATOM     20  O   UNL     1      16.230  18.045 -13.037  1.00  0.00    -0.385 OA
ATOM     21  H   UNL     1      16.490  17.503 -12.263  1.00  0.00     0.211 HD
ENDBRANCH  14  20
ENDBRANCH   8   9
ENDBRANCH   7   8
ENDBRANCH   1   7
BRANCH   2  22
ATOM     22  O   UNL     1      16.388  13.382 -17.447  1.00  0.00    -0.387 OA
ATOM     23  H   UNL     1      15.787  14.154 -17.506  1.00  0.00     0.211 HD
ENDBRANCH   2  22
BRANCH   3  24
ATOM     24  O   UNL     1      18.624  11.708 -16.953  1.00  0.00    -0.387 OA
ATOM     25  H   UNL     1      18.382  11.165 -17.731  1.00  0.00     0.211 HD
ENDBRANCH   3  24
BRANCH   5  26
ATOM     26  O   UNL     1      21.440  15.595 -16.967  1.00  0.00    -0.347 OA
BRANCH  26  27
ATOM     27  C   UNL     1      21.332  16.496 -15.858  1.00  0.00     0.200 C 
BRANCH  27  28
ATOM     28  C   UNL     1      21.975  16.024 -14.536  1.00  0.00     0.170 C 
BRANCH  28  29
ATOM     29  C   UNL     1      23.267  16.683 -14.088  1.00  0.00    -0.013 A 
ATOM     30  C   UNL     1      23.249  17.451 -12.907  1.00  0.00     0.056 A 
ATOM     31  C   UNL     1      24.473  16.598 -14.804  1.00  0.00     0.010 A 
ATOM     32  C   UNL     1      24.405  18.073 -12.450  1.00  0.00     0.157 A 
ATOM     33  C   UNL     1      25.629  17.244 -14.351  1.00  0.00     0.050 A 
ATOM     34  C   UNL     1      25.585  17.976 -13.176  1.00  0.00     0.157 A 
BRANCH  32  35
ATOM     35  O   UNL     1      24.428  18.770 -11.273  1.00  0.00    -0.504 OA
ATOM     36  H   UNL     1      23.505  18.808 -10.931  1.00  0.00     0.293 HD
ENDBRANCH  32  35
BRANCH  34  37
ATOM     37  O   UNL     1      26.716  18.597 -12.732  1.00  0.00    -0.504 OA
ATOM     38  H   UNL     1      26.842  18.255 -11.824  1.00  0.00     0.293 HD
ENDBRANCH  34  37
ENDBRANCH  28  29
BRANCH  28  39
ATOM     39  O   UNL     1      22.142  14.603 -14.562  1.00  0.00    -0.386 OA
ATOM     40  H   UNL     1      23.086  14.434 -14.355  1.00  0.00     0.211 HD
ENDBRANCH  28  39
ENDBRANCH  27  28
ENDBRANCH  26  27
ENDBRANCH   5  26
BRANCH   4  41
ATOM     41  O   UNL     1      21.168  12.849 -17.601  1.00  0.00    -0.385 OA
ATOM     42  H   UNL     1      20.728  12.064 -17.983  1.00  0.00     0.211 HD
ENDBRANCH   4  41
TORSDOF 16
ENDMDL
