REMARK SMILES O=C1c2c(O)c(=O)ccn2N([C@H]2c3ccccc3SCc3c2ccc(F)c3F)[C@@H]2COCCN12
REMARK SMILES IDX 6 1 10 2 7 3 8 4 1 5 3 6 31 7 4 8 2 9 29 10 11 11 30 12
REMARK SMILES IDX 32 13 33 14 34 15 9 16 5 17 12 19 22 20 13 21 23 22 21 23
REMARK SMILES IDX 18 24 14 25 24 26 20 27 27 28 17 29 19 30 15 31 25 32 16 33
REMARK SMILES IDX 28 34 26 35
REMARK H PARENT 5 18
ROOT
ATOM      1  C   UNL     1      20.713  18.131 -12.868  1.00  0.00     0.224 A 
ATOM      2  N   UNL     1      20.213  17.852 -15.497  1.00  0.00    -0.253 N 
ATOM      3  O   UNL     1      20.926  18.236 -11.705  1.00  0.00    -0.286 OA
ATOM      4  C   UNL     1      21.471  18.893 -13.773  1.00  0.00     0.076 A 
ATOM      5  O   UNL     1      17.609  15.580 -14.669  1.00  0.00    -0.267 OA
ATOM      6  C   UNL     1      19.505  17.084 -14.687  1.00  0.00     0.173 A 
ATOM      7  O   UNL     1      16.692  18.193 -18.160  1.00  0.00    -0.375 OA
ATOM      8  C   UNL     1      19.723  17.259 -13.300  1.00  0.00     0.195 A 
ATOM      9  C   UNL     1      18.387  16.221 -15.288  1.00  0.00     0.278 C 
ATOM     10  C   UNL     1      18.878  17.274 -17.542  1.00  0.00     0.225 C 
ATOM     11  N   UNL     1      20.081  17.591 -16.871  1.00  0.00    -0.275 N 
ATOM     12  C   UNL     1      18.005  18.524 -17.787  1.00  0.00     0.209 C 
ATOM     13  C   UNL     1      16.085  16.949 -17.796  1.00  0.00     0.182 C 
ATOM     14  C   UNL     1      16.987  15.746 -17.399  1.00  0.00     0.150 C 
ATOM     15  N   UNL     1      18.109  16.364 -16.705  1.00  0.00    -0.311 N 
ATOM     16  C   UNL     1      21.190  18.720 -15.106  1.00  0.00     0.115 A 
ENDROOT
BRANCH   8  17
ATOM     17  O   UNL     1      19.033  16.512 -12.349  1.00  0.00    -0.502 OA
ATOM     18  H   UNL     1      19.206  16.656 -11.385  1.00  0.00     0.293 HD
ENDBRANCH   8  17
BRANCH  11  19
ATOM     19  C   UNL     1      21.321  17.059 -17.414  1.00  0.00     0.165 C 
ATOM     20  C   UNL     1      21.445  16.194 -18.701  1.00  0.00    -0.012 A 
ATOM     21  C   UNL     1      22.466  16.608 -16.449  1.00  0.00    -0.006 A 
ATOM     22  C   UNL     1      21.057  14.864 -18.908  1.00  0.00     0.010 A 
ATOM     23  C   UNL     1      22.067  16.891 -19.681  1.00  0.00     0.007 A 
ATOM     24  C   UNL     1      23.644  17.200 -16.709  1.00  0.00     0.013 A 
ATOM     25  C   UNL     1      22.392  15.724 -15.328  1.00  0.00     0.007 A 
ATOM     26  C   UNL     1      21.268  14.293 -20.185  1.00  0.00     0.043 A 
ATOM     27  C   UNL     1      22.586  18.326 -19.504  1.00  0.00     0.114 C 
ATOM     28  C   UNL     1      22.300  16.346 -20.927  1.00  0.00     0.163 A 
ATOM     29  C   UNL     1      24.793  17.021 -15.939  1.00  0.00     0.015 A 
ATOM     30  S   UNL     1      23.788  18.325 -18.129  1.00  0.00    -0.121 SA
ATOM     31  C   UNL     1      23.524  15.544 -14.536  1.00  0.00     0.000 A 
ATOM     32  C   UNL     1      21.904  15.058 -21.192  1.00  0.00     0.159 A 
ATOM     33  C   UNL     1      24.729  16.171 -14.829  1.00  0.00     0.001 A 
ATOM     34  F   UNL     1      22.899  17.117 -21.852  1.00  0.00    -0.203 F 
ATOM     35  F   UNL     1      22.153  14.577 -22.451  1.00  0.00    -0.204 F 
ENDBRANCH  11  19
TORSDOF 2
