MODEL 1
REMARK VINA RESULT:   -10.850      0.000      0.000
REMARK INTER + INTRA:         -12.170
REMARK INTER:                 -11.802
REMARK INTRA:                  -0.368
REMARK UNBOUND:                -0.368
REMARK SMILES O=C1c2c(O)c(=O)ccn2N([C@H]2c3ccccc3SCc3c2ccc(F)c3F)[C@@H]2COCCN12
REMARK SMILES IDX 6 1 10 2 7 3 8 4 1 5 3 6 31 7 4 8 2 9 29 10 11 11 30 12
REMARK SMILES IDX 32 13 33 14 34 15 9 16 5 17 12 19 22 20 13 21 23 22 21 23
REMARK SMILES IDX 18 24 14 25 24 26 20 27 27 28 17 29 19 30 15 31 25 32 16 33
REMARK SMILES IDX 28 34 26 35
REMARK H PARENT 5 18
ROOT
ATOM      1  C   UNL     1      20.723  17.727 -13.217  1.00  0.00     0.224 A 
ATOM      2  N   UNL     1      19.888  17.140 -15.706  1.00  0.00    -0.253 N 
ATOM      3  O   UNL     1      21.078  17.974 -12.112  1.00  0.00    -0.286 OA
ATOM      4  C   UNL     1      21.617  17.927 -14.282  1.00  0.00     0.076 A 
ATOM      5  O   UNL     1      16.715  16.298 -14.347  1.00  0.00    -0.267 OA
ATOM      6  C   UNL     1      19.028  16.895 -14.733  1.00  0.00     0.173 A 
ATOM      7  O   UNL     1      16.509  18.292 -18.326  1.00  0.00    -0.375 OA
ATOM      8  C   UNL     1      19.437  17.248 -13.425  1.00  0.00     0.195 A 
ATOM      9  C   UNL     1      17.610  16.440 -15.106  1.00  0.00     0.278 C 
ATOM     10  C   UNL     1      18.232  16.732 -17.547  1.00  0.00     0.225 C 
ATOM     11  N   UNL     1      19.527  16.678 -16.983  1.00  0.00    -0.275 N 
ATOM     12  C   UNL     1      17.880  18.147 -18.057  1.00  0.00     0.209 C 
ATOM     13  C   UNL     1      15.515  17.490 -17.680  1.00  0.00     0.182 C 
ATOM     14  C   UNL     1      15.927  16.137 -17.034  1.00  0.00     0.150 C 
ATOM     15  N   UNL     1      17.264  16.389 -16.514  1.00  0.00    -0.311 N 
ATOM     16  C   UNL     1      21.157  17.612 -15.537  1.00  0.00     0.115 A 
ENDROOT
BRANCH   8  17
ATOM     17  O   UNL     1      18.616  17.043 -12.320  1.00  0.00    -0.502 OA
ATOM     18  H   UNL     1      18.320  16.128 -12.085  1.00  0.00     0.293 HD
ENDBRANCH   8  17
BRANCH  11  19
ATOM     19  C   UNL     1      20.408  15.603 -17.409  1.00  0.00     0.165 C 
ATOM     20  C   UNL     1      21.040  14.530 -16.476  1.00  0.00    -0.012 A 
ATOM     21  C   UNL     1      21.415  15.836 -18.583  1.00  0.00    -0.006 A 
ATOM     22  C   UNL     1      22.063  14.680 -15.530  1.00  0.00     0.010 A 
ATOM     23  C   UNL     1      20.496  13.314 -16.717  1.00  0.00     0.007 A 
ATOM     24  C   UNL     1      21.296  14.934 -19.572  1.00  0.00     0.013 A 
ATOM     25  C   UNL     1      22.364  16.893 -18.748  1.00  0.00     0.007 A 
ATOM     26  C   UNL     1      22.463  13.544 -14.788  1.00  0.00     0.043 A 
ATOM     27  C   UNL     1      19.424  13.060 -17.788  1.00  0.00     0.114 C 
ATOM     28  C   UNL     1      20.887  12.190 -16.018  1.00  0.00     0.163 A 
ATOM     29  C   UNL     1      22.027  14.979 -20.759  1.00  0.00     0.015 A 
ATOM     30  S   UNL     1      20.109  13.569 -19.403  1.00  0.00    -0.121 SA
ATOM     31  C   UNL     1      23.092  16.965 -19.933  1.00  0.00     0.000 A 
ATOM     32  C   UNL     1      21.860  12.291 -15.054  1.00  0.00     0.159 A 
ATOM     33  C   UNL     1      22.948  16.018 -20.939  1.00  0.00     0.001 A 
ATOM     34  F   UNL     1      20.276  11.026 -16.301  1.00  0.00    -0.203 F 
ATOM     35  F   UNL     1      22.196  11.143 -14.387  1.00  0.00    -0.204 F 
ENDBRANCH  11  19
TORSDOF 2
ENDMDL
MODEL 2
REMARK VINA RESULT:   -10.112      2.798      4.487
REMARK INTER + INTRA:         -11.366
REMARK INTER:                 -10.475
REMARK INTRA:                  -0.891
REMARK UNBOUND:                -0.368
REMARK SMILES O=C1c2c(O)c(=O)ccn2N([C@H]2c3ccccc3SCc3c2ccc(F)c3F)[C@@H]2COCCN12
REMARK SMILES IDX 6 1 10 2 7 3 8 4 1 5 3 6 31 7 4 8 2 9 29 10 11 11 30 12
REMARK SMILES IDX 32 13 33 14 34 15 9 16 5 17 12 19 22 20 13 21 23 22 21 23
REMARK SMILES IDX 18 24 14 25 24 26 20 27 27 28 17 29 19 30 15 31 25 32 16 33
REMARK SMILES IDX 28 34 26 35
REMARK H PARENT 5 18
ROOT
ATOM      1  C   UNL     1      20.511  18.056 -13.207  1.00  0.00     0.224 A 
ATOM      2  N   UNL     1      19.338  18.141 -15.626  1.00  0.00    -0.253 N 
ATOM      3  O   UNL     1      21.017  18.003 -12.134  1.00  0.00    -0.286 OA
ATOM      4  C   UNL     1      21.223  18.636 -14.270  1.00  0.00     0.076 A 
ATOM      5  O   UNL     1      16.450  16.659 -14.179  1.00  0.00    -0.267 OA
ATOM      6  C   UNL     1      18.647  17.549 -14.667  1.00  0.00     0.173 A 
ATOM      7  O   UNL     1      15.550  19.692 -17.317  1.00  0.00    -0.375 OA
ATOM      8  C   UNL     1      19.232  17.544 -13.379  1.00  0.00     0.195 A 
ATOM      9  C   UNL     1      17.213  17.095 -14.971  1.00  0.00     0.278 C 
ATOM     10  C   UNL     1      17.443  18.135 -17.272  1.00  0.00     0.225 C 
ATOM     11  N   UNL     1      18.809  18.038 -16.924  1.00  0.00    -0.275 N 
ATOM     12  C   UNL     1      16.952  19.599 -17.285  1.00  0.00     0.209 C 
ATOM     13  C   UNL     1      14.705  18.651 -16.817  1.00  0.00     0.182 C 
ATOM     14  C   UNL     1      15.273  17.212 -16.664  1.00  0.00     0.150 C 
ATOM     15  N   UNL     1      16.660  17.423 -16.272  1.00  0.00    -0.311 N 
ATOM     16  C   UNL     1      20.593  18.656 -15.490  1.00  0.00     0.115 A 
ENDROOT
BRANCH   8  17
ATOM     17  O   UNL     1      18.599  16.955 -12.288  1.00  0.00    -0.502 OA
ATOM     18  H   UNL     1      18.230  17.522 -11.564  1.00  0.00     0.293 HD
ENDBRANCH   8  17
BRANCH  11  19
ATOM     19  C   UNL     1      19.666  17.215 -17.763  1.00  0.00     0.165 C 
ATOM     20  C   UNL     1      20.155  17.587 -19.193  1.00  0.00    -0.012 A 
ATOM     21  C   UNL     1      19.544  15.657 -17.713  1.00  0.00    -0.006 A 
ATOM     22  C   UNL     1      19.425  17.634 -20.388  1.00  0.00     0.010 A 
ATOM     23  C   UNL     1      21.486  17.834 -19.188  1.00  0.00     0.007 A 
ATOM     24  C   UNL     1      20.710  15.041 -17.453  1.00  0.00     0.013 A 
ATOM     25  C   UNL     1      18.372  14.849 -17.843  1.00  0.00     0.007 A 
ATOM     26  C   UNL     1      20.098  18.013 -21.572  1.00  0.00     0.043 A 
ATOM     27  C   UNL     1      22.364  17.730 -17.932  1.00  0.00     0.114 C 
ATOM     28  C   UNL     1      22.165  18.187 -20.336  1.00  0.00     0.163 A 
ATOM     29  C   UNL     1      20.842  13.663 -17.281  1.00  0.00     0.015 A 
ATOM     30  S   UNL     1      22.228  16.027 -17.288  1.00  0.00    -0.121 SA
ATOM     31  C   UNL     1      18.479  13.472 -17.658  1.00  0.00     0.000 A 
ATOM     32  C   UNL     1      21.487  18.284 -21.526  1.00  0.00     0.159 A 
ATOM     33  C   UNL     1      19.699  12.863 -17.389  1.00  0.00     0.001 A 
ATOM     34  F   UNL     1      23.482  18.443 -20.238  1.00  0.00    -0.203 F 
ATOM     35  F   UNL     1      22.214  18.649 -22.629  1.00  0.00    -0.204 F 
ENDBRANCH  11  19
TORSDOF 2
ENDMDL
MODEL 3
REMARK VINA RESULT:    -9.795      5.494      7.844
REMARK INTER + INTRA:         -11.022
REMARK INTER:                 -10.087
REMARK INTRA:                  -0.936
REMARK UNBOUND:                -0.368
REMARK SMILES O=C1c2c(O)c(=O)ccn2N([C@H]2c3ccccc3SCc3c2ccc(F)c3F)[C@@H]2COCCN12
REMARK SMILES IDX 6 1 10 2 7 3 8 4 1 5 3 6 31 7 4 8 2 9 29 10 11 11 30 12
REMARK SMILES IDX 32 13 33 14 34 15 9 16 5 17 12 19 22 20 13 21 23 22 21 23
REMARK SMILES IDX 18 24 14 25 24 26 20 27 27 28 17 29 19 30 15 31 25 32 16 33
REMARK SMILES IDX 28 34 26 35
REMARK H PARENT 5 18
ROOT
ATOM      1  C   UNL     1      24.496  24.057 -15.664  1.00  0.00     0.224 A 
ATOM      2  N   UNL     1      24.155  21.396 -15.874  1.00  0.00    -0.253 N 
ATOM      3  O   UNL     1      24.664  25.227 -15.563  1.00  0.00    -0.286 OA
ATOM      4  C   UNL     1      23.614  23.575 -16.646  1.00  0.00     0.076 A 
ATOM      5  O   UNL     1      26.350  20.987 -13.109  1.00  0.00    -0.267 OA
ATOM      6  C   UNL     1      25.026  21.799 -14.965  1.00  0.00     0.173 A 
ATOM      7  O   UNL     1      22.977  18.078 -13.190  1.00  0.00    -0.375 OA
ATOM      8  C   UNL     1      25.175  23.198 -14.810  1.00  0.00     0.195 A 
ATOM      9  C   UNL     1      25.650  20.752 -14.033  1.00  0.00     0.278 C 
ATOM     10  C   UNL     1      24.170  19.002 -15.120  1.00  0.00     0.225 C 
ATOM     11  N   UNL     1      24.099  20.012 -16.107  1.00  0.00    -0.275 N 
ATOM     12  C   UNL     1      22.835  18.838 -14.362  1.00  0.00     0.209 C 
ATOM     13  C   UNL     1      24.221  17.978 -12.489  1.00  0.00     0.182 C 
ATOM     14  C   UNL     1      25.546  18.303 -13.235  1.00  0.00     0.150 C 
ATOM     15  N   UNL     1      25.181  19.383 -14.143  1.00  0.00    -0.311 N 
ATOM     16  C   UNL     1      23.470  22.212 -16.726  1.00  0.00     0.115 A 
ENDROOT
BRANCH   8  17
ATOM     17  O   UNL     1      26.058  23.743 -13.882  1.00  0.00    -0.502 OA
ATOM     18  H   UNL     1      26.058  23.417 -12.947  1.00  0.00     0.293 HD
ENDBRANCH   8  17
BRANCH  11  19
ATOM     19  C   UNL     1      24.592  19.694 -17.438  1.00  0.00     0.165 C 
ATOM     20  C   UNL     1      23.916  18.716 -18.441  1.00  0.00    -0.012 A 
ATOM     21  C   UNL     1      26.131  19.632 -17.707  1.00  0.00    -0.006 A 
ATOM     22  C   UNL     1      23.839  17.318 -18.391  1.00  0.00     0.010 A 
ATOM     23  C   UNL     1      23.404  19.397 -19.493  1.00  0.00     0.007 A 
ATOM     24  C   UNL     1      26.527  20.426 -18.716  1.00  0.00     0.013 A 
ATOM     25  C   UNL     1      27.134  18.907 -16.990  1.00  0.00     0.007 A 
ATOM     26  C   UNL     1      23.154  16.645 -19.429  1.00  0.00     0.043 A 
ATOM     27  C   UNL     1      23.514  20.921 -19.653  1.00  0.00     0.114 C 
ATOM     28  C   UNL     1      22.749  18.757 -20.526  1.00  0.00     0.163 A 
ATOM     29  C   UNL     1      27.858  20.602 -19.093  1.00  0.00     0.015 A 
ATOM     30  S   UNL     1      25.287  21.360 -19.661  1.00  0.00    -0.121 SA
ATOM     31  C   UNL     1      28.471  19.082 -17.340  1.00  0.00     0.000 A 
ATOM     32  C   UNL     1      22.615  17.391 -20.504  1.00  0.00     0.159 A 
ATOM     33  C   UNL     1      28.850  19.911 -18.389  1.00  0.00     0.001 A 
ATOM     34  F   UNL     1      22.246  19.512 -21.519  1.00  0.00    -0.203 F 
ATOM     35  F   UNL     1      21.945  16.815 -21.552  1.00  0.00    -0.204 F 
ENDBRANCH  11  19
TORSDOF 2
ENDMDL
MODEL 4
REMARK VINA RESULT:    -9.771      2.699      4.068
REMARK INTER + INTRA:         -10.996
REMARK INTER:                 -11.631
REMARK INTRA:                   0.636
REMARK UNBOUND:                -0.368
REMARK SMILES O=C1c2c(O)c(=O)ccn2N([C@H]2c3ccccc3SCc3c2ccc(F)c3F)[C@@H]2COCCN12
REMARK SMILES IDX 6 1 10 2 7 3 8 4 1 5 3 6 31 7 4 8 2 9 29 10 11 11 30 12
REMARK SMILES IDX 32 13 33 14 34 15 9 16 5 17 12 19 22 20 13 21 23 22 21 23
REMARK SMILES IDX 18 24 14 25 24 26 20 27 27 28 17 29 19 30 15 31 25 32 16 33
REMARK SMILES IDX 28 34 26 35
REMARK H PARENT 5 18
ROOT
ATOM      1  C   UNL     1      20.939  18.248 -12.976  1.00  0.00     0.224 A 
ATOM      2  N   UNL     1      20.463  17.996 -15.612  1.00  0.00    -0.253 N 
ATOM      3  O   UNL     1      21.140  18.341 -11.809  1.00  0.00    -0.286 OA
ATOM      4  C   UNL     1      21.752  18.965 -13.869  1.00  0.00     0.076 A 
ATOM      5  O   UNL     1      17.723  15.876 -14.824  1.00  0.00    -0.267 OA
ATOM      6  C   UNL     1      19.701  17.270 -14.813  1.00  0.00     0.173 A 
ATOM      7  O   UNL     1      17.007  18.535 -18.327  1.00  0.00    -0.375 OA
ATOM      8  C   UNL     1      19.907  17.433 -13.423  1.00  0.00     0.195 A 
ATOM      9  C   UNL     1      18.545  16.471 -15.431  1.00  0.00     0.278 C 
ATOM     10  C   UNL     1      19.128  17.494 -17.677  1.00  0.00     0.225 C 
ATOM     11  N   UNL     1      20.337  17.743 -16.988  1.00  0.00    -0.275 N 
ATOM     12  C   UNL     1      18.331  18.791 -17.934  1.00  0.00     0.209 C 
ATOM     13  C   UNL     1      16.325  17.328 -17.973  1.00  0.00     0.182 C 
ATOM     14  C   UNL     1      17.152  16.076 -17.563  1.00  0.00     0.150 C 
ATOM     15  N   UNL     1      18.297  16.629 -16.852  1.00  0.00    -0.311 N 
ATOM     16  C   UNL     1      21.482  18.808 -15.206  1.00  0.00     0.115 A 
ENDROOT
BRANCH   8  17
ATOM     17  O   UNL     1      19.162  16.727 -12.482  1.00  0.00    -0.502 OA
ATOM     18  H   UNL     1      19.253  15.743 -12.415  1.00  0.00     0.293 HD
ENDBRANCH   8  17
BRANCH  11  19
ATOM     19  C   UNL     1      21.553  17.141 -17.512  1.00  0.00     0.165 C 
ATOM     20  C   UNL     1      21.637  16.221 -18.764  1.00  0.00    -0.012 A 
ATOM     21  C   UNL     1      22.684  16.685 -16.533  1.00  0.00    -0.006 A 
ATOM     22  C   UNL     1      21.197  14.899 -18.915  1.00  0.00     0.010 A 
ATOM     23  C   UNL     1      22.282  16.853 -19.773  1.00  0.00     0.007 A 
ATOM     24  C   UNL     1      23.883  17.220 -16.821  1.00  0.00     0.013 A 
ATOM     25  C   UNL     1      22.581  15.851 -15.377  1.00  0.00     0.007 A 
ATOM     26  C   UNL     1      21.380  14.269 -20.169  1.00  0.00     0.043 A 
ATOM     27  C   UNL     1      22.857  18.272 -19.656  1.00  0.00     0.114 C 
ATOM     28  C   UNL     1      22.488  16.249 -20.996  1.00  0.00     0.163 A 
ATOM     29  C   UNL     1      25.028  17.027 -16.047  1.00  0.00     0.015 A 
ATOM     30  S   UNL     1      24.064  18.280 -18.286  1.00  0.00    -0.121 SA
ATOM     31  C   UNL     1      23.708  15.659 -14.582  1.00  0.00     0.000 A 
ATOM     32  C   UNL     1      22.041  14.968 -21.208  1.00  0.00     0.159 A 
ATOM     33  C   UNL     1      24.936  16.226 -14.904  1.00  0.00     0.001 A 
ATOM     34  F   UNL     1      23.112  16.958 -21.954  1.00  0.00    -0.203 F 
ATOM     35  F   UNL     1      22.265  14.427 -22.447  1.00  0.00    -0.204 F 
ENDBRANCH  11  19
TORSDOF 2
ENDMDL
MODEL 5
REMARK VINA RESULT:    -9.675      3.077      4.986
REMARK INTER + INTRA:         -10.891
REMARK INTER:                  -9.840
REMARK INTRA:                  -1.051
REMARK UNBOUND:                -0.368
REMARK SMILES O=C1c2c(O)c(=O)ccn2N([C@H]2c3ccccc3SCc3c2ccc(F)c3F)[C@@H]2COCCN12
REMARK SMILES IDX 6 1 10 2 7 3 8 4 1 5 3 6 31 7 4 8 2 9 29 10 11 11 30 12
REMARK SMILES IDX 32 13 33 14 34 15 9 16 5 17 12 19 22 20 13 21 23 22 21 23
REMARK SMILES IDX 18 24 14 25 24 26 20 27 27 28 17 29 19 30 15 31 25 32 16 33
REMARK SMILES IDX 28 34 26 35
REMARK H PARENT 5 18
ROOT
ATOM      1  C   UNL     1      17.516  19.881 -13.718  1.00  0.00     0.224 A 
ATOM      2  N   UNL     1      18.664  17.731 -14.858  1.00  0.00    -0.253 N 
ATOM      3  O   UNL     1      17.017  20.840 -13.229  1.00  0.00    -0.286 OA
ATOM      4  C   UNL     1      16.928  18.622 -13.505  1.00  0.00     0.076 A 
ATOM      5  O   UNL     1      21.202  19.871 -16.125  1.00  0.00    -0.267 OA
ATOM      6  C   UNL     1      19.227  18.898 -15.121  1.00  0.00     0.173 A 
ATOM      7  O   UNL     1      22.674  15.853 -14.881  1.00  0.00    -0.375 OA
ATOM      8  C   UNL     1      18.663  20.029 -14.486  1.00  0.00     0.195 A 
ATOM      9  C   UNL     1      20.538  18.914 -15.920  1.00  0.00     0.278 C 
ATOM     10  C   UNL     1      20.506  16.379 -15.896  1.00  0.00     0.225 C 
ATOM     11  N   UNL     1      19.150  16.630 -15.583  1.00  0.00    -0.275 N 
ATOM     12  C   UNL     1      21.283  15.812 -14.688  1.00  0.00     0.209 C 
ATOM     13  C   UNL     1      23.295  16.795 -15.762  1.00  0.00     0.182 C 
ATOM     14  C   UNL     1      22.448  17.473 -16.876  1.00  0.00     0.150 C 
ATOM     15  N   UNL     1      21.135  17.638 -16.266  1.00  0.00    -0.311 N 
ATOM     16  C   UNL     1      17.540  17.550 -14.107  1.00  0.00     0.115 A 
ENDROOT
BRANCH   8  17
ATOM     17  O   UNL     1      19.172  21.310 -14.680  1.00  0.00    -0.502 OA
ATOM     18  H   UNL     1      19.842  21.677 -14.051  1.00  0.00     0.293 HD
ENDBRANCH   8  17
BRANCH  11  19
ATOM     19  C   UNL     1      18.139  16.133 -16.502  1.00  0.00     0.165 C 
ATOM     20  C   UNL     1      18.029  14.669 -17.017  1.00  0.00    -0.012 A 
ATOM     21  C   UNL     1      17.592  17.058 -17.638  1.00  0.00    -0.006 A 
ATOM     22  C   UNL     1      18.852  13.992 -17.926  1.00  0.00     0.010 A 
ATOM     23  C   UNL     1      16.933  14.066 -16.498  1.00  0.00     0.007 A 
ATOM     24  C   UNL     1      16.253  17.176 -17.628  1.00  0.00     0.013 A 
ATOM     25  C   UNL     1      18.326  17.813 -18.605  1.00  0.00     0.007 A 
ATOM     26  C   UNL     1      18.550  12.644 -18.233  1.00  0.00     0.043 A 
ATOM     27  C   UNL     1      15.945  14.768 -15.555  1.00  0.00     0.114 C 
ATOM     28  C   UNL     1      16.610  12.759 -16.800  1.00  0.00     0.163 A 
ATOM     29  C   UNL     1      15.539  18.007 -18.491  1.00  0.00     0.015 A 
ATOM     30  S   UNL     1      15.278  16.229 -16.423  1.00  0.00    -0.121 SA
ATOM     31  C   UNL     1      17.632  18.662 -19.465  1.00  0.00     0.000 A 
ATOM     32  C   UNL     1      17.407  12.040 -17.657  1.00  0.00     0.159 A 
ATOM     33  C   UNL     1      16.247  18.764 -19.431  1.00  0.00     0.001 A 
ATOM     34  F   UNL     1      15.519  12.228 -16.219  1.00  0.00    -0.203 F 
ATOM     35  F   UNL     1      17.039  10.744 -17.908  1.00  0.00    -0.204 F 
ENDBRANCH  11  19
TORSDOF 2
ENDMDL
MODEL 6
REMARK VINA RESULT:    -9.475      3.849      6.014
REMARK INTER + INTRA:         -10.674
REMARK INTER:                  -9.873
REMARK INTRA:                  -0.802
REMARK UNBOUND:                -0.368
REMARK SMILES O=C1c2c(O)c(=O)ccn2N([C@H]2c3ccccc3SCc3c2ccc(F)c3F)[C@@H]2COCCN12
REMARK SMILES IDX 6 1 10 2 7 3 8 4 1 5 3 6 31 7 4 8 2 9 29 10 11 11 30 12
REMARK SMILES IDX 32 13 33 14 34 15 9 16 5 17 12 19 22 20 13 21 23 22 21 23
REMARK SMILES IDX 18 24 14 25 24 26 20 27 27 28 17 29 19 30 15 31 25 32 16 33
REMARK SMILES IDX 28 34 26 35
REMARK H PARENT 5 18
ROOT
ATOM      1  C   UNL     1      25.430  17.451 -13.115  1.00  0.00     0.224 A 
ATOM      2  N   UNL     1      24.306  17.988 -15.500  1.00  0.00    -0.253 N 
ATOM      3  O   UNL     1      25.919  17.231 -12.056  1.00  0.00    -0.286 OA
ATOM      4  C   UNL     1      25.166  16.377 -13.982  1.00  0.00     0.076 A 
ATOM      5  O   UNL     1      24.430  21.444 -14.678  1.00  0.00    -0.267 OA
ATOM      6  C   UNL     1      24.496  19.024 -14.701  1.00  0.00     0.173 A 
ATOM      7  O   UNL     1      25.211  20.575 -18.978  1.00  0.00    -0.375 OA
ATOM      8  C   UNL     1      25.134  18.761 -13.466  1.00  0.00     0.195 A 
ATOM      9  C   UNL     1      24.197  20.430 -15.241  1.00  0.00     0.278 C 
ATOM     10  C   UNL     1      23.673  19.381 -17.490  1.00  0.00     0.225 C 
ATOM     11  N   UNL     1      23.567  18.235 -16.669  1.00  0.00    -0.275 N 
ATOM     12  C   UNL     1      24.922  19.329 -18.397  1.00  0.00     0.209 C 
ATOM     13  C   UNL     1      24.805  21.810 -18.379  1.00  0.00     0.182 C 
ATOM     14  C   UNL     1      23.643  21.811 -17.345  1.00  0.00     0.150 C 
ATOM     15  N   UNL     1      23.806  20.551 -16.633  1.00  0.00    -0.311 N 
ATOM     16  C   UNL     1      24.588  16.691 -15.188  1.00  0.00     0.115 A 
ENDROOT
BRANCH   8  17
ATOM     17  O   UNL     1      25.393  19.771 -12.544  1.00  0.00    -0.502 OA
ATOM     18  H   UNL     1      25.354  20.720 -12.824  1.00  0.00     0.293 HD
ENDBRANCH   8  17
BRANCH  11  19
ATOM     19  C   UNL     1      22.283  17.554 -16.618  1.00  0.00     0.165 C 
ATOM     20  C   UNL     1      21.729  16.589 -17.705  1.00  0.00    -0.012 A 
ATOM     21  C   UNL     1      21.051  18.259 -15.963  1.00  0.00    -0.006 A 
ATOM     22  C   UNL     1      21.255  16.890 -18.989  1.00  0.00     0.010 A 
ATOM     23  C   UNL     1      21.695  15.319 -17.238  1.00  0.00     0.007 A 
ATOM     24  C   UNL     1      20.474  17.529 -14.993  1.00  0.00     0.013 A 
ATOM     25  C   UNL     1      20.527  19.564 -16.222  1.00  0.00     0.007 A 
ATOM     26  C   UNL     1      20.806  15.826 -19.806  1.00  0.00     0.043 A 
ATOM     27  C   UNL     1      22.129  14.925 -15.818  1.00  0.00     0.114 C 
ATOM     28  C   UNL     1      21.243  14.270 -18.012  1.00  0.00     0.163 A 
ATOM     29  C   UNL     1      19.410  17.976 -14.209  1.00  0.00     0.015 A 
ATOM     30  S   UNL     1      21.100  15.861 -14.634  1.00  0.00    -0.121 SA
ATOM     31  C   UNL     1      19.476  20.036 -15.439  1.00  0.00     0.000 A 
ATOM     32  C   UNL     1      20.803  14.507 -19.291  1.00  0.00     0.159 A 
ATOM     33  C   UNL     1      18.900  19.258 -14.442  1.00  0.00     0.001 A 
ATOM     34  F   UNL     1      21.269  13.035 -17.479  1.00  0.00    -0.203 F 
ATOM     35  F   UNL     1      20.377  13.423 -20.013  1.00  0.00    -0.204 F 
ENDBRANCH  11  19
TORSDOF 2
ENDMDL
MODEL 7
REMARK VINA RESULT:    -9.280      2.898      4.356
REMARK INTER + INTRA:         -10.462
REMARK INTER:                  -9.492
REMARK INTRA:                  -0.970
REMARK UNBOUND:                -0.368
REMARK SMILES O=C1c2c(O)c(=O)ccn2N([C@H]2c3ccccc3SCc3c2ccc(F)c3F)[C@@H]2COCCN12
REMARK SMILES IDX 6 1 10 2 7 3 8 4 1 5 3 6 31 7 4 8 2 9 29 10 11 11 30 12
REMARK SMILES IDX 32 13 33 14 34 15 9 16 5 17 12 19 22 20 13 21 23 22 21 23
REMARK SMILES IDX 18 24 14 25 24 26 20 27 27 28 17 29 19 30 15 31 25 32 16 33
REMARK SMILES IDX 28 34 26 35
REMARK H PARENT 5 18
ROOT
ATOM      1  C   UNL     1      18.909  21.178 -14.875  1.00  0.00     0.224 A 
ATOM      2  N   UNL     1      18.599  18.969 -16.380  1.00  0.00    -0.253 N 
ATOM      3  O   UNL     1      19.044  22.142 -14.195  1.00  0.00    -0.286 OA
ATOM      4  C   UNL     1      19.418  21.190 -16.185  1.00  0.00     0.076 A 
ATOM      5  O   UNL     1      16.811  17.495 -13.686  1.00  0.00    -0.267 OA
ATOM      6  C   UNL     1      18.142  18.897 -15.141  1.00  0.00     0.173 A 
ATOM      7  O   UNL     1      15.228  16.427 -17.712  1.00  0.00    -0.375 OA
ATOM      8  C   UNL     1      18.254  20.069 -14.358  1.00  0.00     0.195 A 
ATOM      9  C   UNL     1      17.368  17.641 -14.719  1.00  0.00     0.278 C 
ATOM     10  C   UNL     1      17.572  16.796 -17.102  1.00  0.00     0.225 C 
ATOM     11  N   UNL     1      18.596  17.771 -17.113  1.00  0.00    -0.275 N 
ATOM     12  C   UNL     1      16.361  17.220 -17.960  1.00  0.00     0.209 C 
ATOM     13  C   UNL     1      15.029  15.747 -16.469  1.00  0.00     0.182 C 
ATOM     14  C   UNL     1      16.249  15.471 -15.545  1.00  0.00     0.150 C 
ATOM     15  N   UNL     1      17.101  16.637 -15.733  1.00  0.00    -0.311 N 
ATOM     16  C   UNL     1      19.245  20.043 -16.920  1.00  0.00     0.115 A 
ENDROOT
BRANCH   8  17
ATOM     17  O   UNL     1      17.803  20.117 -13.041  1.00  0.00    -0.502 OA
ATOM     18  H   UNL     1      17.602  19.278 -12.555  1.00  0.00     0.293 HD
ENDBRANCH   8  17
BRANCH  11  19
ATOM     19  C   UNL     1      19.956  17.324 -17.372  1.00  0.00     0.165 C 
ATOM     20  C   UNL     1      20.379  16.315 -18.478  1.00  0.00    -0.012 A 
ATOM     21  C   UNL     1      20.959  17.147 -16.185  1.00  0.00    -0.006 A 
ATOM     22  C   UNL     1      20.162  14.933 -18.538  1.00  0.00     0.010 A 
ATOM     23  C   UNL     1      21.087  16.945 -19.445  1.00  0.00     0.007 A 
ATOM     24  C   UNL     1      22.101  17.836 -16.348  1.00  0.00     0.013 A 
ATOM     25  C   UNL     1      20.782  16.419 -14.968  1.00  0.00     0.007 A 
ATOM     26  C   UNL     1      20.640  14.225 -19.666  1.00  0.00     0.043 A 
ATOM     27  C   UNL     1      21.428  18.442 -19.410  1.00  0.00     0.114 C 
ATOM     28  C   UNL     1      21.579  16.269 -20.543  1.00  0.00     0.163 A 
ATOM     29  C   UNL     1      23.115  17.901 -15.392  1.00  0.00     0.015 A 
ATOM     30  S   UNL     1      22.374  18.770 -17.883  1.00  0.00    -0.121 SA
ATOM     31  C   UNL     1      21.775  16.484 -13.993  1.00  0.00     0.000 A 
ATOM     32  C   UNL     1      21.361  14.919 -20.667  1.00  0.00     0.159 A 
ATOM     33  C   UNL     1      22.946  17.206 -14.189  1.00  0.00     0.001 A 
ATOM     34  F   UNL     1      22.249  16.976 -21.471  1.00  0.00    -0.203 F 
ATOM     35  F   UNL     1      21.864  14.307 -21.785  1.00  0.00    -0.204 F 
ENDBRANCH  11  19
TORSDOF 2
ENDMDL
MODEL 8
REMARK VINA RESULT:    -9.080      4.461      7.008
REMARK INTER + INTRA:         -10.244
REMARK INTER:                  -9.240
REMARK INTRA:                  -1.004
REMARK UNBOUND:                -0.368
REMARK SMILES O=C1c2c(O)c(=O)ccn2N([C@H]2c3ccccc3SCc3c2ccc(F)c3F)[C@@H]2COCCN12
REMARK SMILES IDX 6 1 10 2 7 3 8 4 1 5 3 6 31 7 4 8 2 9 29 10 11 11 30 12
REMARK SMILES IDX 32 13 33 14 34 15 9 16 5 17 12 19 22 20 13 21 23 22 21 23
REMARK SMILES IDX 18 24 14 25 24 26 20 27 27 28 17 29 19 30 15 31 25 32 16 33
REMARK SMILES IDX 28 34 26 35
REMARK H PARENT 5 18
ROOT
ATOM      1  C   UNL     1      25.157  17.779 -12.799  1.00  0.00     0.224 A 
ATOM      2  N   UNL     1      25.085  18.226 -15.451  1.00  0.00    -0.253 N 
ATOM      3  O   UNL     1      25.186  17.601 -11.626  1.00  0.00    -0.286 OA
ATOM      4  C   UNL     1      24.829  16.706 -13.645  1.00  0.00     0.076 A 
ATOM      5  O   UNL     1      26.110  21.570 -14.825  1.00  0.00    -0.267 OA
ATOM      6  C   UNL     1      25.356  19.274 -14.693  1.00  0.00     0.173 A 
ATOM      7  O   UNL     1      27.849  19.805 -18.528  1.00  0.00    -0.375 OA
ATOM      8  C   UNL     1      25.448  19.040 -13.301  1.00  0.00     0.195 A 
ATOM      9  C   UNL     1      25.736  20.594 -15.379  1.00  0.00     0.278 C 
ATOM     10  C   UNL     1      25.616  19.393 -17.609  1.00  0.00     0.225 C 
ATOM     11  N   UNL     1      24.877  18.485 -16.816  1.00  0.00    -0.275 N 
ATOM     12  C   UNL     1      26.989  18.819 -18.019  1.00  0.00     0.209 C 
ATOM     13  C   UNL     1      27.721  21.187 -18.176  1.00  0.00     0.182 C 
ATOM     14  C   UNL     1      26.369  21.709 -17.614  1.00  0.00     0.150 C 
ATOM     15  N   UNL     1      25.864  20.594 -16.824  1.00  0.00    -0.311 N 
ATOM     16  C   UNL     1      24.798  16.974 -14.991  1.00  0.00     0.115 A 
ENDROOT
BRANCH   8  17
ATOM     17  O   UNL     1      25.734  20.064 -12.402  1.00  0.00    -0.502 OA
ATOM     18  H   UNL     1      25.018  20.685 -12.114  1.00  0.00     0.293 HD
ENDBRANCH   8  17
BRANCH  11  19
ATOM     19  C   UNL     1      23.490  18.240 -17.180  1.00  0.00     0.165 C 
ATOM     20  C   UNL     1      23.007  17.579 -18.503  1.00  0.00    -0.012 A 
ATOM     21  C   UNL     1      22.378  19.248 -16.741  1.00  0.00    -0.006 A 
ATOM     22  C   UNL     1      23.011  18.104 -19.801  1.00  0.00     0.010 A 
ATOM     23  C   UNL     1      22.487  16.354 -18.256  1.00  0.00     0.007 A 
ATOM     24  C   UNL     1      21.374  18.669 -16.062  1.00  0.00     0.013 A 
ATOM     25  C   UNL     1      22.339  20.667 -16.917  1.00  0.00     0.007 A 
ATOM     26  C   UNL     1      22.522  17.296 -20.855  1.00  0.00     0.043 A 
ATOM     27  C   UNL     1      22.382  15.743 -16.851  1.00  0.00     0.114 C 
ATOM     28  C   UNL     1      21.987  15.558 -19.267  1.00  0.00     0.163 A 
ATOM     29  C   UNL     1      20.308  19.370 -15.498  1.00  0.00     0.015 A 
ATOM     30  S   UNL     1      21.376  16.868 -15.821  1.00  0.00    -0.121 SA
ATOM     31  C   UNL     1      21.291  21.387 -16.348  1.00  0.00     0.000 A 
ATOM     32  C   UNL     1      22.003  16.012 -20.563  1.00  0.00     0.159 A 
ATOM     33  C   UNL     1      20.267  20.761 -15.649  1.00  0.00     0.001 A 
ATOM     34  F   UNL     1      21.514  14.343 -18.938  1.00  0.00    -0.203 F 
ATOM     35  F   UNL     1      21.503  15.172 -21.523  1.00  0.00    -0.204 F 
ENDBRANCH  11  19
TORSDOF 2
ENDMDL
MODEL 9
REMARK VINA RESULT:    -8.996      3.435      5.446
REMARK INTER + INTRA:         -10.153
REMARK INTER:                  -9.814
REMARK INTRA:                  -0.339
REMARK UNBOUND:                -0.368
REMARK SMILES O=C1c2c(O)c(=O)ccn2N([C@H]2c3ccccc3SCc3c2ccc(F)c3F)[C@@H]2COCCN12
REMARK SMILES IDX 6 1 10 2 7 3 8 4 1 5 3 6 31 7 4 8 2 9 29 10 11 11 30 12
REMARK SMILES IDX 32 13 33 14 34 15 9 16 5 17 12 19 22 20 13 21 23 22 21 23
REMARK SMILES IDX 18 24 14 25 24 26 20 27 27 28 17 29 19 30 15 31 25 32 16 33
REMARK SMILES IDX 28 34 26 35
REMARK H PARENT 5 18
ROOT
ATOM      1  C   UNL     1      20.956  12.485 -16.192  1.00  0.00     0.224 A 
ATOM      2  N   UNL     1      20.805  15.088 -15.527  1.00  0.00    -0.253 N 
ATOM      3  O   UNL     1      21.010  11.340 -16.500  1.00  0.00    -0.286 OA
ATOM      4  C   UNL     1      22.047  13.064 -15.522  1.00  0.00     0.076 A 
ATOM      5  O   UNL     1      17.520  15.150 -16.881  1.00  0.00    -0.267 OA
ATOM      6  C   UNL     1      19.774  14.599 -16.194  1.00  0.00     0.173 A 
ATOM      7  O   UNL     1      18.029  17.672 -13.243  1.00  0.00    -0.375 OA
ATOM      8  C   UNL     1      19.820  13.219 -16.504  1.00  0.00     0.195 A 
ATOM      9  C   UNL     1      18.547  15.496 -16.405  1.00  0.00     0.278 C 
ATOM     10  C   UNL     1      19.688  17.273 -15.002  1.00  0.00     0.225 C 
ATOM     11  N   UNL     1      20.811  16.478 -15.328  1.00  0.00    -0.275 N 
ATOM     12  C   UNL     1      19.305  17.151 -13.511  1.00  0.00     0.209 C 
ATOM     13  C   UNL     1      17.010  17.752 -14.245  1.00  0.00     0.182 C 
ATOM     14  C   UNL     1      17.411  17.714 -15.747  1.00  0.00     0.150 C 
ATOM     15  N   UNL     1      18.550  16.806 -15.782  1.00  0.00    -0.311 N 
ATOM     16  C   UNL     1      21.935  14.395 -15.203  1.00  0.00     0.115 A 
ENDROOT
BRANCH   8  17
ATOM     17  O   UNL     1      18.790  12.588 -17.198  1.00  0.00    -0.502 OA
ATOM     18  H   UNL     1      18.289  13.081 -17.895  1.00  0.00     0.293 HD
ENDBRANCH   8  17
BRANCH  11  19
ATOM     19  C   UNL     1      21.886  17.101 -16.084  1.00  0.00     0.165 C 
ATOM     20  C   UNL     1      22.122  16.945 -17.613  1.00  0.00    -0.012 A 
ATOM     21  C   UNL     1      23.289  17.303 -15.424  1.00  0.00    -0.006 A 
ATOM     22  C   UNL     1      22.584  15.830 -18.323  1.00  0.00     0.010 A 
ATOM     23  C   UNL     1      21.864  18.111 -18.253  1.00  0.00     0.007 A 
ATOM     24  C   UNL     1      23.718  18.576 -15.467  1.00  0.00     0.013 A 
ATOM     25  C   UNL     1      24.105  16.342 -14.751  1.00  0.00     0.007 A 
ATOM     26  C   UNL     1      22.708  15.931 -19.729  1.00  0.00     0.043 A 
ATOM     27  C   UNL     1      21.425  19.395 -17.533  1.00  0.00     0.114 C 
ATOM     28  C   UNL     1      21.998  18.236 -19.620  1.00  0.00     0.163 A 
ATOM     29  C   UNL     1      24.901  19.020 -14.876  1.00  0.00     0.015 A 
ATOM     30  S   UNL     1      22.718  19.831 -16.320  1.00  0.00    -0.121 SA
ATOM     31  C   UNL     1      25.283  16.768 -14.140  1.00  0.00     0.000 A 
ATOM     32  C   UNL     1      22.412  17.159 -20.366  1.00  0.00     0.159 A 
ATOM     33  C   UNL     1      25.701  18.092 -14.200  1.00  0.00     0.001 A 
ATOM     34  F   UNL     1      21.695  19.421 -20.179  1.00  0.00    -0.203 F 
ATOM     35  F   UNL     1      22.514  17.343 -21.720  1.00  0.00    -0.204 F 
ENDBRANCH  11  19
TORSDOF 2
ENDMDL
