MODEL 1
REMARK VINA RESULT:    -7.559      0.000      0.000
REMARK INTER + INTRA:          -7.748
REMARK INTER:                  -8.222
REMARK INTRA:                   0.474
REMARK UNBOUND:                 0.474
REMARK SMILES O=C1c2c(O)c(=O)ccn2N([C@H]2c3ccccc3SCc3c2ccc(F)c3F)[C@@H]2COCCN12
REMARK SMILES IDX 6 1 10 2 7 3 8 4 1 5 3 6 31 7 4 8 2 9 29 10 11 11 30 12
REMARK SMILES IDX 32 13 33 14 34 15 9 16 5 17 12 19 22 20 13 21 23 22 21 23
REMARK SMILES IDX 18 24 14 25 24 26 20 27 27 28 17 29 19 30 15 31 25 32 16 33
REMARK SMILES IDX 28 34 26 35
REMARK H PARENT 5 18
ROOT
ATOM      1  C   UNL     1      20.410  17.943 -13.204  1.00  0.00     0.224 A 
ATOM      2  N   UNL     1      19.587  17.292 -15.682  1.00  0.00    -0.253 N 
ATOM      3  O   UNL     1      20.761  18.217 -12.104  1.00  0.00    -0.286 OA
ATOM      4  C   UNL     1      21.273  18.205 -14.281  1.00  0.00     0.076 A 
ATOM      5  O   UNL     1      16.500  16.227 -14.279  1.00  0.00    -0.267 OA
ATOM      6  C   UNL     1      18.759  16.988 -14.697  1.00  0.00     0.173 A 
ATOM      7  O   UNL     1      16.100  18.193 -18.258  1.00  0.00    -0.375 OA
ATOM      8  C   UNL     1      19.159  17.372 -13.395  1.00  0.00     0.195 A 
ATOM      9  C   UNL     1      17.373  16.432 -15.050  1.00  0.00     0.278 C 
ATOM     10  C   UNL     1      17.940  16.763 -17.500  1.00  0.00     0.225 C 
ATOM     11  N   UNL     1      19.242  16.803 -16.953  1.00  0.00    -0.275 N 
ATOM     12  C   UNL     1      17.481  18.148 -18.006  1.00  0.00     0.209 C 
ATOM     13  C   UNL     1      15.174  17.323 -17.598  1.00  0.00     0.182 C 
ATOM     14  C   UNL     1      15.690  16.005 -16.955  1.00  0.00     0.150 C 
ATOM     15  N   UNL     1      17.013  16.354 -16.454  1.00  0.00    -0.311 N 
ATOM     16  C   UNL     1      20.820  17.855 -15.529  1.00  0.00     0.115 A 
ENDROOT
BRANCH   8  17
ATOM     17  O   UNL     1      18.369  17.112 -12.278  1.00  0.00    -0.502 OA
ATOM     18  H   UNL     1      18.495  16.273 -11.767  1.00  0.00     0.293 HD
ENDBRANCH   8  17
BRANCH  11  19
ATOM     19  C   UNL     1      20.193  15.793 -17.389  1.00  0.00     0.165 C 
ATOM     20  C   UNL     1      20.930  14.786 -16.460  1.00  0.00    -0.012 A 
ATOM     21  C   UNL     1      21.148  16.086 -18.593  1.00  0.00    -0.006 A 
ATOM     22  C   UNL     1      21.963  15.027 -15.545  1.00  0.00     0.010 A 
ATOM     23  C   UNL     1      20.477  13.528 -16.671  1.00  0.00     0.007 A 
ATOM     24  C   UNL     1      21.074  15.164 -19.567  1.00  0.00     0.013 A 
ATOM     25  C   UNL     1      22.007  17.210 -18.796  1.00  0.00     0.007 A 
ATOM     26  C   UNL     1      22.470  13.937 -14.800  1.00  0.00     0.043 A 
ATOM     27  C   UNL     1      19.400  13.177 -17.709  1.00  0.00     0.114 C 
ATOM     28  C   UNL     1      20.971  12.448 -15.969  1.00  0.00     0.163 A 
ATOM     29  C   UNL     1      21.768  15.247 -20.774  1.00  0.00     0.015 A 
ATOM     30  S   UNL     1      20.001  13.713 -19.348  1.00  0.00    -0.121 SA
ATOM     31  C   UNL     1      22.697  17.321 -20.002  1.00  0.00     0.000 A 
ATOM     32  C   UNL     1      21.958  12.638 -15.034  1.00  0.00     0.159 A 
ATOM     33  C   UNL     1      22.599  16.351 -20.992  1.00  0.00     0.001 A 
ATOM     34  F   UNL     1      20.445  11.236 -16.222  1.00  0.00    -0.203 F 
ATOM     35  F   UNL     1      22.400  11.528 -14.361  1.00  0.00    -0.204 F 
ENDBRANCH  11  19
TORSDOF 2
ENDMDL
MODEL 2
REMARK VINA RESULT:    -7.216      2.780      4.460
REMARK INTER + INTRA:          -7.375
REMARK INTER:                  -6.927
REMARK INTRA:                  -0.448
REMARK UNBOUND:                 0.474
REMARK SMILES O=C1c2c(O)c(=O)ccn2N([C@H]2c3ccccc3SCc3c2ccc(F)c3F)[C@@H]2COCCN12
REMARK SMILES IDX 6 1 10 2 7 3 8 4 1 5 3 6 31 7 4 8 2 9 29 10 11 11 30 12
REMARK SMILES IDX 32 13 33 14 34 15 9 16 5 17 12 19 22 20 13 21 23 22 21 23
REMARK SMILES IDX 18 24 14 25 24 26 20 27 27 28 17 29 19 30 15 31 25 32 16 33
REMARK SMILES IDX 28 34 26 35
REMARK H PARENT 5 18
ROOT
ATOM      1  C   UNL     1      20.520  17.979 -13.076  1.00  0.00     0.224 A 
ATOM      2  N   UNL     1      19.364  18.258 -15.489  1.00  0.00    -0.253 N 
ATOM      3  O   UNL     1      21.018  17.841 -12.007  1.00  0.00    -0.286 OA
ATOM      4  C   UNL     1      21.270  18.569 -14.107  1.00  0.00     0.076 A 
ATOM      5  O   UNL     1      16.388  16.879 -14.123  1.00  0.00    -0.267 OA
ATOM      6  C   UNL     1      18.636  17.660 -14.563  1.00  0.00     0.173 A 
ATOM      7  O   UNL     1      15.683  20.117 -17.101  1.00  0.00    -0.375 OA
ATOM      8  C   UNL     1      19.214  17.553 -13.276  1.00  0.00     0.195 A 
ATOM      9  C   UNL     1      17.178  17.309 -14.891  1.00  0.00     0.278 C 
ATOM     10  C   UNL     1      17.479  18.451 -17.135  1.00  0.00     0.225 C 
ATOM     11  N   UNL     1      18.836  18.254 -16.791  1.00  0.00    -0.275 N 
ATOM     12  C   UNL     1      17.076  19.940 -17.072  1.00  0.00     0.209 C 
ATOM     13  C   UNL     1      14.774  19.105 -16.656  1.00  0.00     0.182 C 
ATOM     14  C   UNL     1      15.256  17.628 -16.577  1.00  0.00     0.150 C 
ATOM     15  N   UNL     1      16.651  17.736 -16.174  1.00  0.00    -0.311 N 
ATOM     16  C   UNL     1      20.647  18.691 -15.325  1.00  0.00     0.115 A 
ENDROOT
BRANCH   8  17
ATOM     17  O   UNL     1      18.542  16.948 -12.217  1.00  0.00    -0.502 OA
ATOM     18  H   UNL     1      17.621  16.608 -12.345  1.00  0.00     0.293 HD
ENDBRANCH   8  17
BRANCH  11  19
ATOM     19  C   UNL     1      19.646  17.427 -17.671  1.00  0.00     0.165 C 
ATOM     20  C   UNL     1      20.084  17.805 -19.115  1.00  0.00    -0.012 A 
ATOM     21  C   UNL     1      19.500  15.870 -17.631  1.00  0.00    -0.006 A 
ATOM     22  C   UNL     1      19.309  17.875 -20.280  1.00  0.00     0.010 A 
ATOM     23  C   UNL     1      21.418  18.031 -19.160  1.00  0.00     0.007 A 
ATOM     24  C   UNL     1      20.665  15.233 -17.422  1.00  0.00     0.013 A 
ATOM     25  C   UNL     1      18.311  15.082 -17.722  1.00  0.00     0.007 A 
ATOM     26  C   UNL     1      19.941  18.256 -21.486  1.00  0.00     0.043 A 
ATOM     27  C   UNL     1      22.343  17.900 -17.941  1.00  0.00     0.114 C 
ATOM     28  C   UNL     1      22.058  18.384 -20.330  1.00  0.00     0.163 A 
ATOM     29  C   UNL     1      20.781  13.852 -17.268  1.00  0.00     0.015 A 
ATOM     30  S   UNL     1      22.204  16.193 -17.308  1.00  0.00    -0.121 SA
ATOM     31  C   UNL     1      18.403  13.702 -17.555  1.00  0.00     0.000 A 
ATOM     32  C   UNL     1      21.335  18.504 -21.492  1.00  0.00     0.159 A 
ATOM     33  C   UNL     1      19.622  13.071 -17.339  1.00  0.00     0.001 A 
ATOM     34  F   UNL     1      23.381  18.618 -20.281  1.00  0.00    -0.203 F 
ATOM     35  F   UNL     1      22.025  18.869 -22.619  1.00  0.00    -0.204 F 
ENDBRANCH  11  19
TORSDOF 2
ENDMDL
MODEL 3
REMARK VINA RESULT:    -6.839      5.734      8.086
REMARK INTER + INTRA:          -6.965
REMARK INTER:                  -6.496
REMARK INTRA:                  -0.468
REMARK UNBOUND:                 0.474
REMARK SMILES O=C1c2c(O)c(=O)ccn2N([C@H]2c3ccccc3SCc3c2ccc(F)c3F)[C@@H]2COCCN12
REMARK SMILES IDX 6 1 10 2 7 3 8 4 1 5 3 6 31 7 4 8 2 9 29 10 11 11 30 12
REMARK SMILES IDX 32 13 33 14 34 15 9 16 5 17 12 19 22 20 13 21 23 22 21 23
REMARK SMILES IDX 18 24 14 25 24 26 20 27 27 28 17 29 19 30 15 31 25 32 16 33
REMARK SMILES IDX 28 34 26 35
REMARK H PARENT 5 18
ROOT
ATOM      1  C   UNL     1      24.743  24.407 -15.658  1.00  0.00     0.224 A 
ATOM      2  N   UNL     1      24.263  21.765 -15.839  1.00  0.00    -0.253 N 
ATOM      3  O   UNL     1      24.973  25.568 -15.569  1.00  0.00    -0.286 OA
ATOM      4  C   UNL     1      23.832  23.962 -16.630  1.00  0.00     0.076 A 
ATOM      5  O   UNL     1      26.451  21.270 -13.082  1.00  0.00    -0.267 OA
ATOM      6  C   UNL     1      25.159  22.132 -14.939  1.00  0.00     0.173 A 
ATOM      7  O   UNL     1      22.929  18.540 -13.115  1.00  0.00    -0.375 OA
ATOM      8  C   UNL     1      25.382  23.522 -14.799  1.00  0.00     0.195 A 
ATOM      9  C   UNL     1      25.734  21.062 -14.000  1.00  0.00     0.278 C 
ATOM     10  C   UNL     1      24.158  19.382 -15.061  1.00  0.00     0.225 C 
ATOM     11  N   UNL     1      24.134  20.384 -16.057  1.00  0.00    -0.275 N 
ATOM     12  C   UNL     1      22.821  19.295 -14.294  1.00  0.00     0.209 C 
ATOM     13  C   UNL     1      24.171  18.382 -12.420  1.00  0.00     0.182 C 
ATOM     14  C   UNL     1      25.507  18.630 -13.177  1.00  0.00     0.150 C 
ATOM     15  N   UNL     1      25.193  19.719 -14.093  1.00  0.00    -0.311 N 
ATOM     16  C   UNL     1      23.616  22.607 -16.695  1.00  0.00     0.115 A 
ENDROOT
BRANCH   8  17
ATOM     17  O   UNL     1      26.297  24.030 -13.881  1.00  0.00    -0.502 OA
ATOM     18  H   UNL     1      26.398  23.602 -12.994  1.00  0.00     0.293 HD
ENDBRANCH   8  17
BRANCH  11  19
ATOM     19  C   UNL     1      24.601  20.028 -17.388  1.00  0.00     0.165 C 
ATOM     20  C   UNL     1      23.898  19.033 -18.356  1.00  0.00    -0.012 A 
ATOM     21  C   UNL     1      26.135  19.942 -17.680  1.00  0.00    -0.006 A 
ATOM     22  C   UNL     1      23.807  17.638 -18.269  1.00  0.00     0.010 A 
ATOM     23  C   UNL     1      23.377  19.694 -19.416  1.00  0.00     0.007 A 
ATOM     24  C   UNL     1      26.523  20.706 -18.715  1.00  0.00     0.013 A 
ATOM     25  C   UNL     1      27.141  19.224 -16.962  1.00  0.00     0.007 A 
ATOM     26  C   UNL     1      23.098  16.947 -19.280  1.00  0.00     0.043 A 
ATOM     27  C   UNL     1      23.501  21.212 -19.616  1.00  0.00     0.114 C 
ATOM     28  C   UNL     1      22.699  19.036 -20.422  1.00  0.00     0.163 A 
ATOM     29  C   UNL     1      27.850  20.858 -19.118  1.00  0.00     0.015 A 
ATOM     30  S   UNL     1      25.278  21.630 -19.663  1.00  0.00    -0.121 SA
ATOM     31  C   UNL     1      28.474  19.374 -17.337  1.00  0.00     0.000 A 
ATOM     32  C   UNL     1      22.549  17.672 -20.364  1.00  0.00     0.159 A 
ATOM     33  C   UNL     1      28.846  20.173 -18.412  1.00  0.00     0.001 A 
ATOM     34  F   UNL     1      22.188  19.772 -21.425  1.00  0.00    -0.203 F 
ATOM     35  F   UNL     1      21.857  17.078 -21.387  1.00  0.00    -0.204 F 
ENDBRANCH  11  19
TORSDOF 2
ENDMDL
MODEL 4
REMARK VINA RESULT:    -6.731      2.780      4.245
REMARK INTER + INTRA:          -6.847
REMARK INTER:                  -6.352
REMARK INTRA:                  -0.495
REMARK UNBOUND:                 0.474
REMARK SMILES O=C1c2c(O)c(=O)ccn2N([C@H]2c3ccccc3SCc3c2ccc(F)c3F)[C@@H]2COCCN12
REMARK SMILES IDX 6 1 10 2 7 3 8 4 1 5 3 6 31 7 4 8 2 9 29 10 11 11 30 12
REMARK SMILES IDX 32 13 33 14 34 15 9 16 5 17 12 19 22 20 13 21 23 22 21 23
REMARK SMILES IDX 18 24 14 25 24 26 20 27 27 28 17 29 19 30 15 31 25 32 16 33
REMARK SMILES IDX 28 34 26 35
REMARK H PARENT 5 18
ROOT
ATOM      1  C   UNL     1      19.925  20.650 -14.928  1.00  0.00     0.224 A 
ATOM      2  N   UNL     1      19.491  18.538 -16.538  1.00  0.00    -0.253 N 
ATOM      3  O   UNL     1      20.115  21.570 -14.203  1.00  0.00    -0.286 OA
ATOM      4  C   UNL     1      20.346  20.736 -16.266  1.00  0.00     0.076 A 
ATOM      5  O   UNL     1      17.867  16.918 -13.824  1.00  0.00    -0.267 OA
ATOM      6  C   UNL     1      19.116  18.394 -15.278  1.00  0.00     0.173 A 
ATOM      7  O   UNL     1      16.011  16.105 -17.792  1.00  0.00    -0.375 OA
ATOM      8  C   UNL     1      19.292  19.517 -14.435  1.00  0.00     0.195 A 
ATOM      9  C   UNL     1      18.357  17.121 -14.881  1.00  0.00     0.278 C 
ATOM     10  C   UNL     1      18.394  16.419 -17.318  1.00  0.00     0.225 C 
ATOM     11  N   UNL     1      19.426  17.385 -17.338  1.00  0.00    -0.275 N 
ATOM     12  C   UNL     1      17.134  16.903 -18.067  1.00  0.00     0.209 C 
ATOM     13  C   UNL     1      15.886  15.353 -16.581  1.00  0.00     0.182 C 
ATOM     14  C   UNL     1      17.161  15.013 -15.758  1.00  0.00     0.150 C 
ATOM     15  N   UNL     1      18.012  16.182 -15.933  1.00  0.00    -0.311 N 
ATOM     16  C   UNL     1      20.112  19.637 -17.055  1.00  0.00     0.115 A 
ENDROOT
BRANCH   8  17
ATOM     17  O   UNL     1      18.930  19.489 -13.091  1.00  0.00    -0.502 OA
ATOM     18  H   UNL     1      18.243  18.849 -12.776  1.00  0.00     0.293 HD
ENDBRANCH   8  17
BRANCH  11  19
ATOM     19  C   UNL     1      20.760  16.944 -17.713  1.00  0.00     0.165 C 
ATOM     20  C   UNL     1      21.109  16.085 -18.962  1.00  0.00    -0.012 A 
ATOM     21  C   UNL     1      21.804  16.584 -16.605  1.00  0.00    -0.006 A 
ATOM     22  C   UNL     1      20.849  14.728 -19.197  1.00  0.00     0.010 A 
ATOM     23  C   UNL     1      21.798  16.821 -19.865  1.00  0.00     0.007 A 
ATOM     24  C   UNL     1      22.959  17.261 -16.723  1.00  0.00     0.013 A 
ATOM     25  C   UNL     1      21.653  15.703 -15.490  1.00  0.00     0.007 A 
ATOM     26  C   UNL     1      21.261  14.168 -20.429  1.00  0.00     0.043 A 
ATOM     27  C   UNL     1      22.184  18.291 -19.645  1.00  0.00     0.114 C 
ATOM     28  C   UNL     1      22.226  16.289 -21.064  1.00  0.00     0.163 A 
ATOM     29  C   UNL     1      24.011  17.172 -15.812  1.00  0.00     0.015 A 
ATOM     30  S   UNL     1      23.199  18.387 -18.130  1.00  0.00    -0.121 SA
ATOM     31  C   UNL     1      22.686  15.612 -14.559  1.00  0.00     0.000 A 
ATOM     32  C   UNL     1      21.962  14.973 -21.359  1.00  0.00     0.159 A 
ATOM     33  C   UNL     1      23.869  16.325 -14.707  1.00  0.00     0.001 A 
ATOM     34  F   UNL     1      22.880  17.097 -21.917  1.00  0.00    -0.203 F 
ATOM     35  F   UNL     1      22.403  14.506 -22.569  1.00  0.00    -0.204 F 
ENDBRANCH  11  19
TORSDOF 2
ENDMDL
MODEL 5
REMARK VINA RESULT:    -6.454      6.303      8.674
REMARK INTER + INTRA:          -6.546
REMARK INTER:                  -6.115
REMARK INTRA:                  -0.432
REMARK UNBOUND:                 0.474
REMARK SMILES O=C1c2c(O)c(=O)ccn2N([C@H]2c3ccccc3SCc3c2ccc(F)c3F)[C@@H]2COCCN12
REMARK SMILES IDX 6 1 10 2 7 3 8 4 1 5 3 6 31 7 4 8 2 9 29 10 11 11 30 12
REMARK SMILES IDX 32 13 33 14 34 15 9 16 5 17 12 19 22 20 13 21 23 22 21 23
REMARK SMILES IDX 18 24 14 25 24 26 20 27 27 28 17 29 19 30 15 31 25 32 16 33
REMARK SMILES IDX 28 34 26 35
REMARK H PARENT 5 18
ROOT
ATOM      1  C   UNL     1      28.792  19.944 -18.049  1.00  0.00     0.224 A 
ATOM      2  N   UNL     1      26.108  19.907 -17.872  1.00  0.00    -0.253 N 
ATOM      3  O   UNL     1      29.975  19.979 -18.134  1.00  0.00    -0.286 OA
ATOM      4  C   UNL     1      28.198  19.051 -17.142  1.00  0.00     0.076 A 
ATOM      5  O   UNL     1      25.993  22.349 -20.451  1.00  0.00    -0.267 OA
ATOM      6  C   UNL     1      26.622  20.794 -18.707  1.00  0.00     0.173 A 
ATOM      7  O   UNL     1      22.704  19.350 -20.648  1.00  0.00    -0.375 OA
ATOM      8  C   UNL     1      28.030  20.787 -18.846  1.00  0.00     0.195 A 
ATOM      9  C   UNL     1      25.666  21.610 -19.587  1.00  0.00     0.278 C 
ATOM     10  C   UNL     1      23.741  20.267 -18.627  1.00  0.00     0.225 C 
ATOM     11  N   UNL     1      24.724  19.998 -17.647  1.00  0.00    -0.275 N 
ATOM     12  C   UNL     1      23.429  19.026 -19.490  1.00  0.00     0.209 C 
ATOM     13  C   UNL     1      22.761  20.649 -21.247  1.00  0.00     0.182 C 
ATOM     14  C   UNL     1      23.232  21.862 -20.396  1.00  0.00     0.150 C 
ATOM     15  N   UNL     1      24.250  21.300 -19.519  1.00  0.00    -0.311 N 
ATOM     16  C   UNL     1      26.827  19.064 -17.077  1.00  0.00     0.115 A 
ENDROOT
BRANCH   8  17
ATOM     17  O   UNL     1      28.686  21.670 -19.700  1.00  0.00    -0.502 OA
ATOM     18  H   UNL     1      28.598  22.647 -19.566  1.00  0.00     0.293 HD
ENDBRANCH   8  17
BRANCH  11  19
ATOM     19  C   UNL     1      24.452  20.417 -16.281  1.00  0.00     0.165 C 
ATOM     20  C   UNL     1      23.397  19.777 -15.334  1.00  0.00    -0.012 A 
ATOM     21  C   UNL     1      24.558  21.928 -15.892  1.00  0.00    -0.006 A 
ATOM     22  C   UNL     1      21.999  19.861 -15.389  1.00  0.00     0.010 A 
ATOM     23  C   UNL     1      24.008  19.112 -14.325  1.00  0.00     0.007 A 
ATOM     24  C   UNL     1      25.383  22.153 -14.854  1.00  0.00     0.013 A 
ATOM     25  C   UNL     1      23.955  23.058 -16.527  1.00  0.00     0.007 A 
ATOM     26  C   UNL     1      21.245  19.176 -14.408  1.00  0.00     0.043 A 
ATOM     27  C   UNL     1      25.533  19.040 -14.158  1.00  0.00     0.114 C 
ATOM     28  C   UNL     1      23.291  18.454 -13.347  1.00  0.00     0.163 A 
ATOM     29  C   UNL     1      25.702  23.422 -14.374  1.00  0.00     0.015 A 
ATOM     30  S   UNL     1      26.166  20.746 -14.010  1.00  0.00    -0.121 SA
ATOM     31  C   UNL     1      24.274  24.336 -16.072  1.00  0.00     0.000 A 
ATOM     32  C   UNL     1      21.918  18.474 -13.379  1.00  0.00     0.159 A 
ATOM     33  C   UNL     1      25.131  24.537 -14.998  1.00  0.00     0.001 A 
ATOM     34  F   UNL     1      23.977  17.794 -12.397  1.00  0.00    -0.203 F 
ATOM     35  F   UNL     1      21.263  17.793 -12.387  1.00  0.00    -0.204 F 
ENDBRANCH  11  19
TORSDOF 2
ENDMDL
MODEL 6
REMARK VINA RESULT:    -6.449      2.801      5.096
REMARK INTER + INTRA:          -6.541
REMARK INTER:                  -6.186
REMARK INTRA:                  -0.355
REMARK UNBOUND:                 0.474
REMARK SMILES O=C1c2c(O)c(=O)ccn2N([C@H]2c3ccccc3SCc3c2ccc(F)c3F)[C@@H]2COCCN12
REMARK SMILES IDX 6 1 10 2 7 3 8 4 1 5 3 6 31 7 4 8 2 9 29 10 11 11 30 12
REMARK SMILES IDX 32 13 33 14 34 15 9 16 5 17 12 19 22 20 13 21 23 22 21 23
REMARK SMILES IDX 18 24 14 25 24 26 20 27 27 28 17 29 19 30 15 31 25 32 16 33
REMARK SMILES IDX 28 34 26 35
REMARK H PARENT 5 18
ROOT
ATOM      1  C   UNL     1      19.710  16.910 -13.498  1.00  0.00     0.224 A 
ATOM      2  N   UNL     1      20.847  17.885 -15.734  1.00  0.00    -0.253 N 
ATOM      3  O   UNL     1      19.197  16.497 -12.511  1.00  0.00    -0.286 OA
ATOM      4  C   UNL     1      20.305  16.003 -14.390  1.00  0.00     0.076 A 
ATOM      5  O   UNL     1      20.026  21.157 -14.617  1.00  0.00    -0.267 OA
ATOM      6  C   UNL     1      20.262  18.771 -14.946  1.00  0.00     0.173 A 
ATOM      7  O   UNL     1      23.943  20.891 -16.725  1.00  0.00    -0.375 OA
ATOM      8  C   UNL     1      19.706  18.277 -13.743  1.00  0.00     0.195 A 
ATOM      9  C   UNL     1      20.399  20.260 -15.292  1.00  0.00     0.278 C 
ATOM     10  C   UNL     1      21.915  19.605 -17.216  1.00  0.00     0.225 C 
ATOM     11  N   UNL     1      21.290  18.360 -16.979  1.00  0.00    -0.275 N 
ATOM     12  C   UNL     1      23.400  19.597 -16.792  1.00  0.00     0.209 C 
ATOM     13  C   UNL     1      23.133  22.048 -16.496  1.00  0.00     0.182 C 
ATOM     14  C   UNL     1      21.606  21.981 -16.783  1.00  0.00     0.150 C 
ATOM     15  N   UNL     1      21.240  20.619 -16.418  1.00  0.00    -0.311 N 
ATOM     16  C   UNL     1      20.871  16.537 -15.522  1.00  0.00     0.115 A 
ENDROOT
BRANCH   8  17
ATOM     17  O   UNL     1      19.070  19.114 -12.830  1.00  0.00    -0.502 OA
ATOM     18  H   UNL     1      19.533  19.384 -11.999  1.00  0.00     0.293 HD
ENDBRANCH   8  17
BRANCH  11  19
ATOM     19  C   UNL     1      20.508  17.777 -18.058  1.00  0.00     0.165 C 
ATOM     20  C   UNL     1      21.091  17.103 -19.333  1.00  0.00    -0.012 A 
ATOM     21  C   UNL     1      19.141  18.417 -18.466  1.00  0.00    -0.006 A 
ATOM     22  C   UNL     1      21.728  17.697 -20.430  1.00  0.00     0.010 A 
ATOM     23  C   UNL     1      20.860  15.769 -19.310  1.00  0.00     0.007 A 
ATOM     24  C   UNL     1      18.119  17.545 -18.447  1.00  0.00     0.013 A 
ATOM     25  C   UNL     1      18.852  19.782 -18.780  1.00  0.00     0.007 A 
ATOM     26  C   UNL     1      22.185  16.862 -21.476  1.00  0.00     0.043 A 
ATOM     27  C   UNL     1      20.104  15.057 -18.178  1.00  0.00     0.114 C 
ATOM     28  C   UNL     1      21.280  14.939 -20.330  1.00  0.00     0.163 A 
ATOM     29  C   UNL     1      16.791  17.894 -18.694  1.00  0.00     0.015 A 
ATOM     30  S   UNL     1      18.438  15.798 -18.061  1.00  0.00    -0.121 SA
ATOM     31  C   UNL     1      17.531  20.154 -19.014  1.00  0.00     0.000 A 
ATOM     32  C   UNL     1      21.943  15.469 -21.409  1.00  0.00     0.159 A 
ATOM     33  C   UNL     1      16.494  19.230 -18.987  1.00  0.00     0.001 A 
ATOM     34  F   UNL     1      21.034  13.622 -20.214  1.00  0.00    -0.203 F 
ATOM     35  F   UNL     1      22.345  14.593 -22.384  1.00  0.00    -0.204 F 
ENDBRANCH  11  19
TORSDOF 2
ENDMDL
MODEL 7
REMARK VINA RESULT:    -6.218      3.516      5.373
REMARK INTER + INTRA:          -6.289
REMARK INTER:                  -6.036
REMARK INTRA:                  -0.253
REMARK UNBOUND:                 0.474
REMARK SMILES O=C1c2c(O)c(=O)ccn2N([C@H]2c3ccccc3SCc3c2ccc(F)c3F)[C@@H]2COCCN12
REMARK SMILES IDX 6 1 10 2 7 3 8 4 1 5 3 6 31 7 4 8 2 9 29 10 11 11 30 12
REMARK SMILES IDX 32 13 33 14 34 15 9 16 5 17 12 19 22 20 13 21 23 22 21 23
REMARK SMILES IDX 18 24 14 25 24 26 20 27 27 28 17 29 19 30 15 31 25 32 16 33
REMARK SMILES IDX 28 34 26 35
REMARK H PARENT 5 18
ROOT
ATOM      1  C   UNL     1      20.343  17.462 -13.594  1.00  0.00     0.224 A 
ATOM      2  N   UNL     1      20.470  18.580 -16.038  1.00  0.00    -0.253 N 
ATOM      3  O   UNL     1      20.268  16.976 -12.513  1.00  0.00    -0.286 OA
ATOM      4  C   UNL     1      21.246  16.923 -14.525  1.00  0.00     0.076 A 
ATOM      5  O   UNL     1      18.063  20.967 -14.973  1.00  0.00    -0.267 OA
ATOM      6  C   UNL     1      19.576  19.094 -15.211  1.00  0.00     0.173 A 
ATOM      7  O   UNL     1      21.175  22.624 -17.698  1.00  0.00    -0.375 OA
ATOM      8  C   UNL     1      19.536  18.548 -13.906  1.00  0.00     0.195 A 
ATOM      9  C   UNL     1      18.802  20.344 -15.653  1.00  0.00     0.278 C 
ATOM     10  C   UNL     1      20.200  20.377 -17.769  1.00  0.00     0.225 C 
ATOM     11  N   UNL     1      20.424  19.042 -17.364  1.00  0.00    -0.275 N 
ATOM     12  C   UNL     1      21.461  21.252 -17.603  1.00  0.00     0.209 C 
ATOM     13  C   UNL     1      19.881  23.158 -17.396  1.00  0.00     0.182 C 
ATOM     14  C   UNL     1      18.643  22.217 -17.416  1.00  0.00     0.150 C 
ATOM     15  N   UNL     1      19.160  20.947 -16.923  1.00  0.00    -0.311 N 
ATOM     16  C   UNL     1      21.279  17.517 -15.763  1.00  0.00     0.115 A 
ENDROOT
BRANCH   8  17
ATOM     17  O   UNL     1      18.641  19.010 -12.945  1.00  0.00    -0.502 OA
ATOM     18  H   UNL     1      17.926  19.645 -13.198  1.00  0.00     0.293 HD
ENDBRANCH   8  17
BRANCH  11  19
ATOM     19  C   UNL     1      19.999  17.980 -18.263  1.00  0.00     0.165 C 
ATOM     20  C   UNL     1      20.060  18.034 -19.816  1.00  0.00    -0.012 A 
ATOM     21  C   UNL     1      18.779  17.079 -17.885  1.00  0.00    -0.006 A 
ATOM     22  C   UNL     1      19.271  18.780 -20.702  1.00  0.00     0.010 A 
ATOM     23  C   UNL     1      20.997  17.176 -20.283  1.00  0.00     0.007 A 
ATOM     24  C   UNL     1      19.063  15.765 -17.900  1.00  0.00     0.013 A 
ATOM     25  C   UNL     1      17.467  17.477 -17.479  1.00  0.00     0.007 A 
ATOM     26  C   UNL     1      19.526  18.666 -22.089  1.00  0.00     0.043 A 
ATOM     27  C   UNL     1      21.848  16.273 -19.378  1.00  0.00     0.114 C 
ATOM     28  C   UNL     1      21.248  17.036 -21.633  1.00  0.00     0.163 A 
ATOM     29  C   UNL     1      18.163  14.769 -17.523  1.00  0.00     0.015 A 
ATOM     30  S   UNL     1      20.715  15.211 -18.417  1.00  0.00    -0.121 SA
ATOM     31  C   UNL     1      16.558  16.498 -17.083  1.00  0.00     0.000 A 
ATOM     32  C   UNL     1      20.528  17.774 -22.540  1.00  0.00     0.159 A 
ATOM     33  C   UNL     1      16.881  15.147 -17.108  1.00  0.00     0.001 A 
ATOM     34  F   UNL     1      22.216  16.182 -22.010  1.00  0.00    -0.203 F 
ATOM     35  F   UNL     1      20.831  17.598 -23.865  1.00  0.00    -0.204 F 
ENDBRANCH  11  19
TORSDOF 2
ENDMDL
MODEL 8
REMARK VINA RESULT:    -6.101      3.144      4.927
REMARK INTER + INTRA:          -6.162
REMARK INTER:                  -5.624
REMARK INTRA:                  -0.537
REMARK UNBOUND:                 0.474
REMARK SMILES O=C1c2c(O)c(=O)ccn2N([C@H]2c3ccccc3SCc3c2ccc(F)c3F)[C@@H]2COCCN12
REMARK SMILES IDX 6 1 10 2 7 3 8 4 1 5 3 6 31 7 4 8 2 9 29 10 11 11 30 12
REMARK SMILES IDX 32 13 33 14 34 15 9 16 5 17 12 19 22 20 13 21 23 22 21 23
REMARK SMILES IDX 18 24 14 25 24 26 20 27 27 28 17 29 19 30 15 31 25 32 16 33
REMARK SMILES IDX 28 34 26 35
REMARK H PARENT 5 18
ROOT
ATOM      1  C   UNL     1      17.066  20.050 -13.508  1.00  0.00     0.224 A 
ATOM      2  N   UNL     1      18.473  18.048 -14.627  1.00  0.00    -0.253 N 
ATOM      3  O   UNL     1      16.454  20.946 -13.026  1.00  0.00    -0.286 OA
ATOM      4  C   UNL     1      16.554  18.745 -13.414  1.00  0.00     0.076 A 
ATOM      5  O   UNL     1      20.957  20.421 -15.534  1.00  0.00    -0.267 OA
ATOM      6  C   UNL     1      18.972  19.263 -14.778  1.00  0.00     0.173 A 
ATOM      7  O   UNL     1      22.593  16.453 -14.338  1.00  0.00    -0.375 OA
ATOM      8  C   UNL     1      18.267  20.317 -14.150  1.00  0.00     0.195 A 
ATOM      9  C   UNL     1      20.348  19.412 -15.440  1.00  0.00     0.278 C 
ATOM     10  C   UNL     1      20.500  16.882 -15.538  1.00  0.00     0.225 C 
ATOM     11  N   UNL     1      19.106  17.024 -15.350  1.00  0.00    -0.275 N 
ATOM     12  C   UNL     1      21.197  16.307 -14.286  1.00  0.00     0.209 C 
ATOM     13  C   UNL     1      23.225  17.480 -15.107  1.00  0.00     0.182 C 
ATOM     14  C   UNL     1      22.442  18.158 -16.267  1.00  0.00     0.150 C 
ATOM     15  N   UNL     1      21.068  18.200 -15.784  1.00  0.00    -0.311 N 
ATOM     16  C   UNL     1      17.298  17.751 -14.001  1.00  0.00     0.115 A 
ENDROOT
BRANCH   8  17
ATOM     17  O   UNL     1      18.698  21.638 -14.233  1.00  0.00    -0.502 OA
ATOM     18  H   UNL     1      19.601  21.844 -14.582  1.00  0.00     0.293 HD
ENDBRANCH   8  17
BRANCH  11  19
ATOM     19  C   UNL     1      18.227  16.508 -16.387  1.00  0.00     0.165 C 
ATOM     20  C   UNL     1      18.201  15.040 -16.901  1.00  0.00    -0.012 A 
ATOM     21  C   UNL     1      17.819  17.420 -17.591  1.00  0.00    -0.006 A 
ATOM     22  C   UNL     1      19.143  14.368 -17.692  1.00  0.00     0.010 A 
ATOM     23  C   UNL     1      17.055  14.426 -16.523  1.00  0.00     0.007 A 
ATOM     24  C   UNL     1      16.489  17.521 -17.754  1.00  0.00     0.013 A 
ATOM     25  C   UNL     1      18.662  18.178 -18.461  1.00  0.00     0.007 A 
ATOM     26  C   UNL     1      18.898  13.015 -18.026  1.00  0.00     0.043 A 
ATOM     27  C   UNL     1      15.946  15.120 -15.719  1.00  0.00     0.114 C 
ATOM     28  C   UNL     1      16.789  13.113 -16.854  1.00  0.00     0.163 A 
ATOM     29  C   UNL     1      15.881  18.338 -18.707  1.00  0.00     0.015 A 
ATOM     30  S   UNL     1      15.378  16.569 -16.676  1.00  0.00    -0.121 SA
ATOM     31  C   UNL     1      18.074  19.013 -19.409  1.00  0.00     0.000 A 
ATOM     32  C   UNL     1      17.698  12.400 -17.596  1.00  0.00     0.159 A 
ATOM     33  C   UNL     1      16.695  19.098 -19.554  1.00  0.00     0.001 A 
ATOM     34  F   UNL     1      15.639  12.572 -16.415  1.00  0.00    -0.203 F 
ATOM     35  F   UNL     1      17.381  11.098 -17.884  1.00  0.00    -0.204 F 
ENDBRANCH  11  19
TORSDOF 2
ENDMDL
MODEL 9
REMARK VINA RESULT:    -5.995      3.917      6.020
REMARK INTER + INTRA:          -6.047
REMARK INTER:                  -5.528
REMARK INTRA:                  -0.519
REMARK UNBOUND:                 0.474
REMARK SMILES O=C1c2c(O)c(=O)ccn2N([C@H]2c3ccccc3SCc3c2ccc(F)c3F)[C@@H]2COCCN12
REMARK SMILES IDX 6 1 10 2 7 3 8 4 1 5 3 6 31 7 4 8 2 9 29 10 11 11 30 12
REMARK SMILES IDX 32 13 33 14 34 15 9 16 5 17 12 19 22 20 13 21 23 22 21 23
REMARK SMILES IDX 18 24 14 25 24 26 20 27 27 28 17 29 19 30 15 31 25 32 16 33
REMARK SMILES IDX 28 34 26 35
REMARK H PARENT 5 18
ROOT
ATOM      1  C   UNL     1      25.333  18.003 -17.111  1.00  0.00     0.224 A 
ATOM      2  N   UNL     1      22.653  18.235 -17.040  1.00  0.00    -0.253 N 
ATOM      3  O   UNL     1      26.513  17.883 -17.135  1.00  0.00    -0.286 OA
ATOM      4  C   UNL     1      24.721  18.913 -17.990  1.00  0.00     0.076 A 
ATOM      5  O   UNL     1      22.610  15.882 -14.377  1.00  0.00    -0.267 OA
ATOM      6  C   UNL     1      23.180  17.337 -16.225  1.00  0.00     0.173 A 
ATOM      7  O   UNL     1      19.577  19.122 -13.981  1.00  0.00    -0.375 OA
ATOM      8  C   UNL     1      24.591  17.242 -16.217  1.00  0.00     0.195 A 
ATOM      9  C   UNL     1      22.256  16.618 -15.232  1.00  0.00     0.278 C 
ATOM     10  C   UNL     1      20.350  18.073 -16.057  1.00  0.00     0.225 C 
ATOM     11  N   UNL     1      21.251  18.241 -17.132  1.00  0.00    -0.275 N 
ATOM     12  C   UNL     1      20.210  19.359 -15.213  1.00  0.00     0.209 C 
ATOM     13  C   UNL     1      19.597  17.840 -13.346  1.00  0.00     0.182 C 
ATOM     14  C   UNL     1      19.898  16.572 -14.193  1.00  0.00     0.150 C 
ATOM     15  N   UNL     1      20.866  17.031 -15.180  1.00  0.00    -0.311 N 
ATOM     16  C   UNL     1      23.352  18.999 -17.927  1.00  0.00     0.115 A 
ENDROOT
BRANCH   8  17
ATOM     17  O   UNL     1      25.261  16.338 -15.398  1.00  0.00    -0.502 OA
ATOM     18  H   UNL     1      25.551  16.611 -14.491  1.00  0.00     0.293 HD
ENDBRANCH   8  17
BRANCH  11  19
ATOM     19  C   UNL     1      20.822  17.805 -18.452  1.00  0.00     0.165 C 
ATOM     20  C   UNL     1      19.621  18.390 -19.249  1.00  0.00    -0.012 A 
ATOM     21  C   UNL     1      20.948  16.299 -18.856  1.00  0.00    -0.006 A 
ATOM     22  C   UNL     1      18.249  18.240 -19.010  1.00  0.00     0.010 A 
ATOM     23  C   UNL     1      20.062  19.080 -20.328  1.00  0.00     0.007 A 
ATOM     24  C   UNL     1      21.638  16.110 -19.993  1.00  0.00     0.013 A 
ATOM     25  C   UNL     1      20.488  15.144 -18.150  1.00  0.00     0.007 A 
ATOM     26  C   UNL     1      17.340  18.885 -19.882  1.00  0.00     0.043 A 
ATOM     27  C   UNL     1      21.546  19.225 -20.695  1.00  0.00     0.114 C 
ATOM     28  C   UNL     1      19.191  19.700 -21.201  1.00  0.00     0.163 A 
ATOM     29  C   UNL     1      21.951  14.856 -20.516  1.00  0.00     0.015 A 
ATOM     30  S   UNL     1      22.234  17.549 -20.929  1.00  0.00    -0.121 SA
ATOM     31  C   UNL     1      20.804  13.881 -18.646  1.00  0.00     0.000 A 
ATOM     32  C   UNL     1      17.837  19.615 -20.988  1.00  0.00     0.159 A 
ATOM     33  C   UNL     1      21.521  13.717 -19.825  1.00  0.00     0.001 A 
ATOM     34  F   UNL     1      19.714  20.388 -22.231  1.00  0.00    -0.203 F 
ATOM     35  F   UNL     1      17.025  20.261 -21.883  1.00  0.00    -0.204 F 
ENDBRANCH  11  19
TORSDOF 2
ENDMDL
