MODEL 1
REMARK VINA RESULT:    -5.638      0.000      0.000
REMARK INTER + INTRA:          -8.590
REMARK INTER:                  -7.945
REMARK INTRA:                  -0.645
REMARK UNBOUND:                -0.645
REMARK SMILES CO[C@H]1OC(OC(=O)c2cc(O)c(O)c(O)c2)[C@H](O)[C@@H](O)[C@@H]1O
REMARK SMILES IDX 7 1 8 2 6 3 5 4 3 5 22 6 4 7 20 8 18 9 2 10 1 11 23 12 21 14
REMARK SMILES IDX 19 16 9 18 17 19 10 20 15 21 11 22 13 23 16 24 12 26 14 28
REMARK H PARENT 23 13 21 15 19 17 16 25 12 27 14 29
ROOT
ATOM      1  C   UNL     1      48.954  18.458 -22.619  1.00  0.00     0.340 C 
ATOM      2  O   UNL     1      49.508  19.354 -23.235  1.00  0.00    -0.246 OA
ENDROOT
BRANCH   1   3
ATOM      3  O   UNL     1      47.627  18.335 -22.383  1.00  0.00    -0.429 OA
BRANCH   3   4
ATOM      4  C   UNL     1      46.767  19.075 -23.263  1.00  0.00     0.345 C 
ATOM      5  C   UNL     1      45.322  17.203 -23.565  1.00  0.00     0.285 C 
ATOM      6  C   UNL     1      44.183  17.872 -22.775  1.00  0.00     0.202 C 
ATOM      7  O   UNL     1      46.142  18.180 -24.198  1.00  0.00    -0.308 OA
ATOM      8  C   UNL     1      44.763  18.849 -21.760  1.00  0.00     0.183 C 
ATOM      9  C   UNL     1      45.697  19.840 -22.454  1.00  0.00     0.215 C 
BRANCH   5  10
ATOM     10  O   UNL     1      44.693  16.358 -24.542  1.00  0.00    -0.353 OA
ATOM     11  C   UNL     1      43.818  17.093 -25.389  1.00  0.00     0.198 C 
ENDBRANCH   5  10
BRANCH   6  12
ATOM     12  O   UNL     1      43.381  16.903 -22.082  1.00  0.00    -0.385 OA
ATOM     13  H   UNL     1      44.022  16.306 -21.645  1.00  0.00     0.211 HD
ENDBRANCH   6  12
BRANCH   8  14
ATOM     14  O   UNL     1      43.705  19.578 -21.112  1.00  0.00    -0.387 OA
ATOM     15  H   UNL     1      43.087  18.891 -20.787  1.00  0.00     0.211 HD
ENDBRANCH   8  14
BRANCH   9  16
ATOM     16  O   UNL     1      46.269  20.708 -21.469  1.00  0.00    -0.384 OA
ATOM     17  H   UNL     1      47.089  21.052 -21.877  1.00  0.00     0.211 HD
ENDBRANCH   9  16
ENDBRANCH   3   4
ENDBRANCH   1   3
BRANCH   1  18
ATOM     18  C   UNL     1      49.695  17.315 -22.020  1.00  0.00     0.067 A 
ATOM     19  C   UNL     1      49.146  16.029 -22.171  1.00  0.00     0.066 A 
ATOM     20  C   UNL     1      50.899  17.489 -21.319  1.00  0.00     0.066 A 
ATOM     21  C   UNL     1      49.805  14.932 -21.625  1.00  0.00     0.162 A 
ATOM     22  C   UNL     1      51.538  16.379 -20.781  1.00  0.00     0.162 A 
ATOM     23  C   UNL     1      50.997  15.109 -20.932  1.00  0.00     0.200 A 
BRANCH  21  24
ATOM     24  O   UNL     1      49.320  13.660 -21.743  1.00  0.00    -0.504 OA
ATOM     25  H   UNL     1      49.277  13.263 -20.854  1.00  0.00     0.293 HD
ENDBRANCH  21  24
BRANCH  22  26
ATOM     26  O   UNL     1      52.707  16.547 -20.097  1.00  0.00    -0.504 OA
ATOM     27  H   UNL     1      53.041  15.639 -19.949  1.00  0.00     0.293 HD
ENDBRANCH  22  26
BRANCH  23  28
ATOM     28  O   UNL     1      51.653  14.038 -20.389  1.00  0.00    -0.502 OA
ATOM     29  H   UNL     1      52.506  14.007 -20.870  1.00  0.00     0.293 HD
ENDBRANCH  23  28
ENDBRANCH   1  18
TORSDOF 10
ENDMDL
MODEL 2
REMARK VINA RESULT:    -5.628      0.076      1.727
REMARK INTER + INTRA:          -8.576
REMARK INTER:                  -7.953
REMARK INTRA:                  -0.623
REMARK UNBOUND:                -0.645
REMARK SMILES CO[C@H]1OC(OC(=O)c2cc(O)c(O)c(O)c2)[C@H](O)[C@@H](O)[C@@H]1O
REMARK SMILES IDX 7 1 8 2 6 3 5 4 3 5 22 6 4 7 20 8 18 9 2 10 1 11 23 12 21 14
REMARK SMILES IDX 19 16 9 18 17 19 10 20 15 21 11 22 13 23 16 24 12 26 14 28
REMARK H PARENT 23 13 21 15 19 17 16 25 12 27 14 29
ROOT
ATOM      1  C   UNL     1      48.934  18.365 -22.667  1.00  0.00     0.340 C 
ATOM      2  O   UNL     1      49.514  19.215 -23.322  1.00  0.00    -0.246 OA
ENDROOT
BRANCH   1   3
ATOM      3  O   UNL     1      47.612  18.323 -22.379  1.00  0.00    -0.429 OA
BRANCH   3   4
ATOM      4  C   UNL     1      46.760  19.078 -23.255  1.00  0.00     0.345 C 
ATOM      5  C   UNL     1      45.314  17.213 -23.596  1.00  0.00     0.285 C 
ATOM      6  C   UNL     1      44.170  17.873 -22.806  1.00  0.00     0.202 C 
ATOM      7  O   UNL     1      46.141  18.197 -24.208  1.00  0.00    -0.308 OA
ATOM      8  C   UNL     1      44.744  18.834 -21.771  1.00  0.00     0.183 C 
ATOM      9  C   UNL     1      45.685  19.833 -22.444  1.00  0.00     0.215 C 
BRANCH   5  10
ATOM     10  O   UNL     1      44.692  16.384 -24.590  1.00  0.00    -0.353 OA
ATOM     11  C   UNL     1      43.811  17.129 -25.423  1.00  0.00     0.198 C 
ENDBRANCH   5  10
BRANCH   6  12
ATOM     12  O   UNL     1      43.360  16.895 -22.133  1.00  0.00    -0.385 OA
ATOM     13  H   UNL     1      43.693  16.877 -21.213  1.00  0.00     0.211 HD
ENDBRANCH   6  12
BRANCH   8  14
ATOM     14  O   UNL     1      43.682  19.555 -21.122  1.00  0.00    -0.387 OA
ATOM     15  H   UNL     1      43.665  20.430 -21.561  1.00  0.00     0.211 HD
ENDBRANCH   8  14
BRANCH   9  16
ATOM     16  O   UNL     1      46.251  20.685 -21.442  1.00  0.00    -0.384 OA
ATOM     17  H   UNL     1      46.723  20.084 -20.832  1.00  0.00     0.211 HD
ENDBRANCH   9  16
ENDBRANCH   3   4
ENDBRANCH   1   3
BRANCH   1  18
ATOM     18  C   UNL     1      49.631  17.194 -22.070  1.00  0.00     0.067 A 
ATOM     19  C   UNL     1      50.835  17.431 -21.381  1.00  0.00     0.066 A 
ATOM     20  C   UNL     1      49.129  15.887 -22.180  1.00  0.00     0.066 A 
ATOM     21  C   UNL     1      51.521  16.364 -20.810  1.00  0.00     0.162 A 
ATOM     22  C   UNL     1      49.832  14.838 -21.603  1.00  0.00     0.162 A 
ATOM     23  C   UNL     1      51.020  15.072 -20.921  1.00  0.00     0.200 A 
BRANCH  21  24
ATOM     24  O   UNL     1      52.692  16.535 -20.128  1.00  0.00    -0.504 OA
ATOM     25  H   UNL     1      53.397  16.054 -20.600  1.00  0.00     0.293 HD
ENDBRANCH  21  24
BRANCH  22  26
ATOM     26  O   UNL     1      49.346  13.568 -21.711  1.00  0.00    -0.504 OA
ATOM     27  H   UNL     1      49.566  13.295 -22.626  1.00  0.00     0.293 HD
ENDBRANCH  22  26
BRANCH  23  28
ATOM     28  O   UNL     1      51.686  14.016 -20.364  1.00  0.00    -0.502 OA
ATOM     29  H   UNL     1      51.053  13.271 -20.424  1.00  0.00     0.293 HD
ENDBRANCH  23  28
ENDBRANCH   1  18
TORSDOF 10
ENDMDL
MODEL 3
REMARK VINA RESULT:    -5.488      2.966      5.266
REMARK INTER + INTRA:          -8.379
REMARK INTER:                  -7.639
REMARK INTRA:                  -0.739
REMARK UNBOUND:                -0.645
REMARK SMILES CO[C@H]1OC(OC(=O)c2cc(O)c(O)c(O)c2)[C@H](O)[C@@H](O)[C@@H]1O
REMARK SMILES IDX 7 1 8 2 6 3 5 4 3 5 22 6 4 7 20 8 18 9 2 10 1 11 23 12 21 14
REMARK SMILES IDX 19 16 9 18 17 19 10 20 15 21 11 22 13 23 16 24 12 26 14 28
REMARK H PARENT 23 13 21 15 19 17 16 25 12 27 14 29
ROOT
ATOM      1  C   UNL     1      48.357  19.062 -24.134  1.00  0.00     0.340 C 
ATOM      2  O   UNL     1      48.958  19.059 -25.196  1.00  0.00    -0.246 OA
ENDROOT
BRANCH   1   3
ATOM      3  O   UNL     1      48.148  20.125 -23.323  1.00  0.00    -0.429 OA
BRANCH   3   4
ATOM      4  C   UNL     1      49.319  20.875 -22.964  1.00  0.00     0.345 C 
ATOM      5  C   UNL     1      48.212  22.951 -23.350  1.00  0.00     0.285 C 
ATOM      6  C   UNL     1      48.198  23.296 -21.850  1.00  0.00     0.202 C 
ATOM      7  O   UNL     1      49.329  22.127 -23.669  1.00  0.00    -0.308 OA
ATOM      8  C   UNL     1      48.194  22.015 -21.024  1.00  0.00     0.183 C 
ATOM      9  C   UNL     1      49.359  21.117 -21.440  1.00  0.00     0.215 C 
BRANCH   5  10
ATOM     10  O   UNL     1      48.288  24.202 -24.051  1.00  0.00    -0.353 OA
ATOM     11  C   UNL     1      49.569  24.807 -23.914  1.00  0.00     0.198 C 
ENDBRANCH   5  10
BRANCH   6  12
ATOM     12  O   UNL     1      47.045  24.079 -21.499  1.00  0.00    -0.385 OA
ATOM     13  H   UNL     1      47.271  24.495 -20.642  1.00  0.00     0.211 HD
ENDBRANCH   6  12
BRANCH   8  14
ATOM     14  O   UNL     1      48.318  22.326 -19.625  1.00  0.00    -0.387 OA
ATOM     15  H   UNL     1      49.086  21.803 -19.317  1.00  0.00     0.211 HD
ENDBRANCH   8  14
BRANCH   9  16
ATOM     16  O   UNL     1      49.297  19.899 -20.688  1.00  0.00    -0.384 OA
ATOM     17  H   UNL     1      50.181  19.492 -20.787  1.00  0.00     0.211 HD
ENDBRANCH   9  16
ENDBRANCH   3   4
ENDBRANCH   1   3
BRANCH   1  18
ATOM     18  C   UNL     1      47.735  17.840 -23.557  1.00  0.00     0.067 A 
ATOM     19  C   UNL     1      46.340  17.841 -23.373  1.00  0.00     0.066 A 
ATOM     20  C   UNL     1      48.490  16.713 -23.197  1.00  0.00     0.066 A 
ATOM     21  C   UNL     1      45.717  16.720 -22.834  1.00  0.00     0.162 A 
ATOM     22  C   UNL     1      47.846  15.606 -22.660  1.00  0.00     0.162 A 
ATOM     23  C   UNL     1      46.469  15.607 -22.480  1.00  0.00     0.200 A 
BRANCH  21  24
ATOM     24  O   UNL     1      44.366  16.665 -22.636  1.00  0.00    -0.504 OA
ATOM     25  H   UNL     1      43.969  17.483 -22.988  1.00  0.00     0.293 HD
ENDBRANCH  21  24
BRANCH  22  26
ATOM     26  O   UNL     1      48.581  14.511 -22.308  1.00  0.00    -0.504 OA
ATOM     27  H   UNL     1      48.029  14.044 -21.647  1.00  0.00     0.293 HD
ENDBRANCH  22  26
BRANCH  23  28
ATOM     28  O   UNL     1      45.867  14.499 -21.948  1.00  0.00    -0.502 OA
ATOM     29  H   UNL     1      45.593  14.780 -21.050  1.00  0.00     0.293 HD
ENDBRANCH  23  28
ENDBRANCH   1  18
TORSDOF 10
ENDMDL
MODEL 4
REMARK VINA RESULT:    -5.467      2.967      5.380
REMARK INTER + INTRA:          -8.349
REMARK INTER:                  -7.616
REMARK INTRA:                  -0.733
REMARK UNBOUND:                -0.645
REMARK SMILES CO[C@H]1OC(OC(=O)c2cc(O)c(O)c(O)c2)[C@H](O)[C@@H](O)[C@@H]1O
REMARK SMILES IDX 7 1 8 2 6 3 5 4 3 5 22 6 4 7 20 8 18 9 2 10 1 11 23 12 21 14
REMARK SMILES IDX 19 16 9 18 17 19 10 20 15 21 11 22 13 23 16 24 12 26 14 28
REMARK H PARENT 23 13 21 15 19 17 16 25 12 27 14 29
ROOT
ATOM      1  C   UNL     1      48.346  19.064 -24.109  1.00  0.00     0.340 C 
ATOM      2  O   UNL     1      48.993  19.024 -25.143  1.00  0.00    -0.246 OA
ENDROOT
BRANCH   1   3
ATOM      3  O   UNL     1      48.134  20.147 -23.326  1.00  0.00    -0.429 OA
BRANCH   3   4
ATOM      4  C   UNL     1      49.306  20.899 -22.973  1.00  0.00     0.345 C 
ATOM      5  C   UNL     1      48.191  22.974 -23.342  1.00  0.00     0.285 C 
ATOM      6  C   UNL     1      48.188  23.313 -21.841  1.00  0.00     0.202 C 
ATOM      7  O   UNL     1      49.307  22.153 -23.674  1.00  0.00    -0.308 OA
ATOM      8  C   UNL     1      48.193  22.029 -21.021  1.00  0.00     0.183 C 
ATOM      9  C   UNL     1      49.357  21.135 -21.448  1.00  0.00     0.215 C 
BRANCH   5  10
ATOM     10  O   UNL     1      48.259  24.228 -24.039  1.00  0.00    -0.353 OA
ATOM     11  C   UNL     1      49.566  24.786 -23.996  1.00  0.00     0.198 C 
ENDBRANCH   5  10
BRANCH   6  12
ATOM     12  O   UNL     1      47.036  24.091 -21.479  1.00  0.00    -0.385 OA
ATOM     13  H   UNL     1      46.971  24.013 -20.505  1.00  0.00     0.211 HD
ENDBRANCH   6  12
BRANCH   8  14
ATOM     14  O   UNL     1      48.327  22.335 -19.621  1.00  0.00    -0.387 OA
ATOM     15  H   UNL     1      47.749  23.113 -19.477  1.00  0.00     0.211 HD
ENDBRANCH   8  14
BRANCH   9  16
ATOM     16  O   UNL     1      49.304  19.914 -20.701  1.00  0.00    -0.384 OA
ATOM     17  H   UNL     1      50.144  19.884 -20.200  1.00  0.00     0.211 HD
ENDBRANCH   9  16
ENDBRANCH   3   4
ENDBRANCH   1   3
BRANCH   1  18
ATOM     18  C   UNL     1      47.659  17.872 -23.543  1.00  0.00     0.067 A 
ATOM     19  C   UNL     1      48.453  16.764 -23.193  1.00  0.00     0.066 A 
ATOM     20  C   UNL     1      46.268  17.827 -23.357  1.00  0.00     0.066 A 
ATOM     21  C   UNL     1      47.852  15.628 -22.662  1.00  0.00     0.162 A 
ATOM     22  C   UNL     1      45.690  16.681 -22.827  1.00  0.00     0.162 A 
ATOM     23  C   UNL     1      46.474  15.589 -22.480  1.00  0.00     0.200 A 
BRANCH  21  24
ATOM     24  O   UNL     1      48.573  14.525 -22.303  1.00  0.00    -0.504 OA
ATOM     25  H   UNL     1      49.032  14.717 -21.464  1.00  0.00     0.293 HD
ENDBRANCH  21  24
BRANCH  22  26
ATOM     26  O   UNL     1      44.338  16.636 -22.649  1.00  0.00    -0.504 OA
ATOM     27  H   UNL     1      44.074  15.752 -22.977  1.00  0.00     0.293 HD
ENDBRANCH  22  26
BRANCH  23  28
ATOM     28  O   UNL     1      45.872  14.476 -21.960  1.00  0.00    -0.502 OA
ATOM     29  H   UNL     1      45.326  14.129 -22.696  1.00  0.00     0.293 HD
ENDBRANCH  23  28
ENDBRANCH   1  18
TORSDOF 10
ENDMDL
MODEL 5
REMARK VINA RESULT:    -5.381      3.269      7.288
REMARK INTER + INTRA:          -8.228
REMARK INTER:                  -7.631
REMARK INTRA:                  -0.598
REMARK UNBOUND:                -0.645
REMARK SMILES CO[C@H]1OC(OC(=O)c2cc(O)c(O)c(O)c2)[C@H](O)[C@@H](O)[C@@H]1O
REMARK SMILES IDX 7 1 8 2 6 3 5 4 3 5 22 6 4 7 20 8 18 9 2 10 1 11 23 12 21 14
REMARK SMILES IDX 19 16 9 18 17 19 10 20 15 21 11 22 13 23 16 24 12 26 14 28
REMARK H PARENT 23 13 21 15 19 17 16 25 12 27 14 29
ROOT
ATOM      1  C   UNL     1      46.082  19.741 -25.443  1.00  0.00     0.340 C 
ATOM      2  O   UNL     1      46.832  19.401 -26.344  1.00  0.00    -0.246 OA
ENDROOT
BRANCH   1   3
ATOM      3  O   UNL     1      45.704  18.996 -24.378  1.00  0.00    -0.429 OA
BRANCH   3   4
ATOM      4  C   UNL     1      45.297  17.650 -24.671  1.00  0.00     0.345 C 
ATOM      5  C   UNL     1      46.928  16.742 -23.188  1.00  0.00     0.285 C 
ATOM      6  C   UNL     1      45.854  16.270 -22.192  1.00  0.00     0.202 C 
ATOM      7  O   UNL     1      46.415  16.760 -24.516  1.00  0.00    -0.308 OA
ATOM      8  C   UNL     1      44.624  17.163 -22.297  1.00  0.00     0.183 C 
ATOM      9  C   UNL     1      44.138  17.224 -23.745  1.00  0.00     0.215 C 
BRANCH   5  10
ATOM     10  O   UNL     1      48.017  15.812 -23.078  1.00  0.00    -0.353 OA
ATOM     11  C   UNL     1      49.206  16.444 -22.618  1.00  0.00     0.198 C 
ENDBRANCH   5  10
BRANCH   6  12
ATOM     12  O   UNL     1      46.338  16.302 -20.840  1.00  0.00    -0.385 OA
ATOM     13  H   UNL     1      46.995  17.027 -20.820  1.00  0.00     0.211 HD
ENDBRANCH   6  12
BRANCH   8  14
ATOM     14  O   UNL     1      43.566  16.649 -21.469  1.00  0.00    -0.387 OA
ATOM     15  H   UNL     1      43.729  15.684 -21.421  1.00  0.00     0.211 HD
ENDBRANCH   8  14
BRANCH   9  16
ATOM     16  O   UNL     1      43.017  18.112 -23.823  1.00  0.00    -0.384 OA
ATOM     17  H   UNL     1      42.684  18.183 -22.906  1.00  0.00     0.211 HD
ENDBRANCH   9  16
ENDBRANCH   3   4
ENDBRANCH   1   3
BRANCH   1  18
ATOM     18  C   UNL     1      45.454  21.088 -25.383  1.00  0.00     0.067 A 
ATOM     19  C   UNL     1      46.297  22.208 -25.505  1.00  0.00     0.066 A 
ATOM     20  C   UNL     1      44.073  21.263 -25.206  1.00  0.00     0.066 A 
ATOM     21  C   UNL     1      45.752  23.487 -25.452  1.00  0.00     0.162 A 
ATOM     22  C   UNL     1      43.551  22.549 -25.155  1.00  0.00     0.162 A 
ATOM     23  C   UNL     1      44.383  23.655 -25.277  1.00  0.00     0.200 A 
BRANCH  21  24
ATOM     24  O   UNL     1      46.521  24.610 -25.567  1.00  0.00    -0.504 OA
ATOM     25  H   UNL     1      47.346  24.372 -26.029  1.00  0.00     0.293 HD
ENDBRANCH  21  24
BRANCH  22  26
ATOM     26  O   UNL     1      42.209  22.720 -24.981  1.00  0.00    -0.504 OA
ATOM     27  H   UNL     1      42.129  23.541 -24.454  1.00  0.00     0.293 HD
ENDBRANCH  22  26
BRANCH  23  28
ATOM     28  O   UNL     1      43.836  24.908 -25.222  1.00  0.00    -0.502 OA
ATOM     29  H   UNL     1      44.065  25.233 -24.326  1.00  0.00     0.293 HD
ENDBRANCH  23  28
ENDBRANCH   1  18
TORSDOF 10
ENDMDL
MODEL 6
REMARK VINA RESULT:    -5.365      3.124      6.005
REMARK INTER + INTRA:          -8.205
REMARK INTER:                  -7.526
REMARK INTRA:                  -0.679
REMARK UNBOUND:                -0.645
REMARK SMILES CO[C@H]1OC(OC(=O)c2cc(O)c(O)c(O)c2)[C@H](O)[C@@H](O)[C@@H]1O
REMARK SMILES IDX 7 1 8 2 6 3 5 4 3 5 22 6 4 7 20 8 18 9 2 10 1 11 23 12 21 14
REMARK SMILES IDX 19 16 9 18 17 19 10 20 15 21 11 22 13 23 16 24 12 26 14 28
REMARK H PARENT 23 13 21 15 19 17 16 25 12 27 14 29
ROOT
ATOM      1  C   UNL     1      48.071  18.972 -23.463  1.00  0.00     0.340 C 
ATOM      2  O   UNL     1      48.985  18.338 -23.967  1.00  0.00    -0.246 OA
ENDROOT
BRANCH   1   3
ATOM      3  O   UNL     1      47.992  20.317 -23.333  1.00  0.00    -0.429 OA
BRANCH   3   4
ATOM      4  C   UNL     1      49.199  20.976 -22.920  1.00  0.00     0.345 C 
ATOM      5  C   UNL     1      48.248  23.132 -23.281  1.00  0.00     0.285 C 
ATOM      6  C   UNL     1      48.211  23.439 -21.774  1.00  0.00     0.202 C 
ATOM      7  O   UNL     1      49.315  22.241 -23.591  1.00  0.00    -0.308 OA
ATOM      8  C   UNL     1      48.094  22.141 -20.984  1.00  0.00     0.183 C 
ATOM      9  C   UNL     1      49.208  21.175 -21.389  1.00  0.00     0.215 C 
BRANCH   5  10
ATOM     10  O   UNL     1      48.430  24.392 -23.945  1.00  0.00    -0.353 OA
ATOM     11  C   UNL     1      49.805  24.745 -24.041  1.00  0.00     0.198 C 
ENDBRANCH   5  10
BRANCH   6  12
ATOM     12  O   UNL     1      47.103  24.290 -21.436  1.00  0.00    -0.385 OA
ATOM     13  H   UNL     1      47.385  25.191 -21.694  1.00  0.00     0.211 HD
ENDBRANCH   6  12
BRANCH   8  14
ATOM     14  O   UNL     1      48.195  22.408 -19.574  1.00  0.00    -0.387 OA
ATOM     15  H   UNL     1      49.124  22.198 -19.343  1.00  0.00     0.211 HD
ENDBRANCH   8  14
BRANCH   9  16
ATOM     16  O   UNL     1      49.040  19.946 -20.674  1.00  0.00    -0.384 OA
ATOM     17  H   UNL     1      49.889  19.472 -20.779  1.00  0.00     0.211 HD
ENDBRANCH   9  16
ENDBRANCH   3   4
ENDBRANCH   1   3
BRANCH   1  18
ATOM     18  C   UNL     1      46.856  18.324 -22.901  1.00  0.00     0.067 A 
ATOM     19  C   UNL     1      45.709  19.121 -22.732  1.00  0.00     0.066 A 
ATOM     20  C   UNL     1      46.829  16.968 -22.540  1.00  0.00     0.066 A 
ATOM     21  C   UNL     1      44.551  18.556 -22.208  1.00  0.00     0.162 A 
ATOM     22  C   UNL     1      45.662  16.426 -22.017  1.00  0.00     0.162 A 
ATOM     23  C   UNL     1      44.530  17.213 -21.852  1.00  0.00     0.200 A 
BRANCH  21  24
ATOM     24  O   UNL     1      43.407  19.282 -22.024  1.00  0.00    -0.504 OA
ATOM     25  H   UNL     1      42.707  18.899 -22.585  1.00  0.00     0.293 HD
ENDBRANCH  21  24
BRANCH  22  26
ATOM     26  O   UNL     1      45.637  15.109 -21.664  1.00  0.00    -0.504 OA
ATOM     27  H   UNL     1      44.964  14.707 -22.251  1.00  0.00     0.293 HD
ENDBRANCH  22  26
BRANCH  23  28
ATOM     28  O   UNL     1      43.396  16.647 -21.334  1.00  0.00    -0.502 OA
ATOM     29  H   UNL     1      43.683  15.757 -21.041  1.00  0.00     0.293 HD
ENDBRANCH  23  28
ENDBRANCH   1  18
TORSDOF 10
ENDMDL
MODEL 7
REMARK VINA RESULT:    -5.335      1.761      6.487
REMARK INTER + INTRA:          -8.162
REMARK INTER:                  -7.566
REMARK INTRA:                  -0.597
REMARK UNBOUND:                -0.645
REMARK SMILES CO[C@H]1OC(OC(=O)c2cc(O)c(O)c(O)c2)[C@H](O)[C@@H](O)[C@@H]1O
REMARK SMILES IDX 7 1 8 2 6 3 5 4 3 5 22 6 4 7 20 8 18 9 2 10 1 11 23 12 21 14
REMARK SMILES IDX 19 16 9 18 17 19 10 20 15 21 11 22 13 23 16 24 12 26 14 28
REMARK H PARENT 23 13 21 15 19 17 16 25 12 27 14 29
ROOT
ATOM      1  C   UNL     1      47.908  16.789 -23.106  1.00  0.00     0.340 C 
ATOM      2  O   UNL     1      48.279  16.710 -24.266  1.00  0.00    -0.246 OA
ENDROOT
BRANCH   1   3
ATOM      3  O   UNL     1      48.512  16.249 -22.022  1.00  0.00    -0.429 OA
BRANCH   3   4
ATOM      4  C   UNL     1      49.944  16.160 -22.086  1.00  0.00     0.345 C 
ATOM      5  C   UNL     1      50.208  18.284 -21.035  1.00  0.00     0.285 C 
ATOM      6  C   UNL     1      50.771  17.652 -19.751  1.00  0.00     0.202 C 
ATOM      7  O   UNL     1      50.509  17.479 -22.171  1.00  0.00    -0.308 OA
ATOM      8  C   UNL     1      50.224  16.239 -19.587  1.00  0.00     0.183 C 
ATOM      9  C   UNL     1      50.494  15.419 -20.848  1.00  0.00     0.215 C 
BRANCH   5  10
ATOM     10  O   UNL     1      50.825  19.576 -21.152  1.00  0.00    -0.353 OA
ATOM     11  C   UNL     1      50.499  20.207 -22.385  1.00  0.00     0.198 C 
ENDBRANCH   5  10
BRANCH   6  12
ATOM     12  O   UNL     1      50.426  18.422 -18.588  1.00  0.00    -0.385 OA
ATOM     13  H   UNL     1      49.680  17.940 -18.175  1.00  0.00     0.211 HD
ENDBRANCH   6  12
BRANCH   8  14
ATOM     14  O   UNL     1      50.848  15.592 -18.464  1.00  0.00    -0.387 OA
ATOM     15  H   UNL     1      51.746  15.980 -18.417  1.00  0.00     0.211 HD
ENDBRANCH   8  14
BRANCH   9  16
ATOM     16  O   UNL     1      49.920  14.117 -20.688  1.00  0.00    -0.384 OA
ATOM     17  H   UNL     1      50.437  13.696 -19.972  1.00  0.00     0.211 HD
ENDBRANCH   9  16
ENDBRANCH   3   4
ENDBRANCH   1   3
BRANCH   1  18
ATOM     18  C   UNL     1      46.685  17.533 -22.701  1.00  0.00     0.067 A 
ATOM     19  C   UNL     1      45.578  16.783 -22.262  1.00  0.00     0.066 A 
ATOM     20  C   UNL     1      46.609  18.934 -22.751  1.00  0.00     0.066 A 
ATOM     21  C   UNL     1      44.414  17.437 -21.877  1.00  0.00     0.162 A 
ATOM     22  C   UNL     1      45.435  19.565 -22.362  1.00  0.00     0.162 A 
ATOM     23  C   UNL     1      44.344  18.825 -21.927  1.00  0.00     0.200 A 
BRANCH  21  24
ATOM     24  O   UNL     1      43.310  16.760 -21.440  1.00  0.00    -0.504 OA
ATOM     25  H   UNL     1      42.928  16.274 -22.194  1.00  0.00     0.293 HD
ENDBRANCH  21  24
BRANCH  22  26
ATOM     26  O   UNL     1      45.361  20.927 -22.412  1.00  0.00    -0.504 OA
ATOM     27  H   UNL     1      45.836  21.231 -21.611  1.00  0.00     0.293 HD
ENDBRANCH  22  26
BRANCH  23  28
ATOM     28  O   UNL     1      43.203  19.479 -21.551  1.00  0.00    -0.502 OA
ATOM     29  H   UNL     1      43.424  19.872 -20.681  1.00  0.00     0.293 HD
ENDBRANCH  23  28
ENDBRANCH   1  18
TORSDOF 10
ENDMDL
MODEL 8
REMARK VINA RESULT:    -5.145      1.813      6.826
REMARK INTER + INTRA:          -7.895
REMARK INTER:                  -7.063
REMARK INTRA:                  -0.832
REMARK UNBOUND:                -0.645
REMARK SMILES CO[C@H]1OC(OC(=O)c2cc(O)c(O)c(O)c2)[C@H](O)[C@@H](O)[C@@H]1O
REMARK SMILES IDX 7 1 8 2 6 3 5 4 3 5 22 6 4 7 20 8 18 9 2 10 1 11 23 12 21 14
REMARK SMILES IDX 19 16 9 18 17 19 10 20 15 21 11 22 13 23 16 24 12 26 14 28
REMARK H PARENT 23 13 21 15 19 17 16 25 12 27 14 29
ROOT
ATOM      1  C   UNL     1      46.509  15.685 -22.265  1.00  0.00     0.340 C 
ATOM      2  O   UNL     1      46.355  14.526 -22.612  1.00  0.00    -0.246 OA
ENDROOT
BRANCH   1   3
ATOM      3  O   UNL     1      47.501  16.173 -21.483  1.00  0.00    -0.429 OA
BRANCH   3   4
ATOM      4  C   UNL     1      48.795  16.261 -22.101  1.00  0.00     0.345 C 
ATOM      5  C   UNL     1      49.255  18.346 -21.040  1.00  0.00     0.285 C 
ATOM      6  C   UNL     1      50.331  17.722 -20.135  1.00  0.00     0.202 C 
ATOM      7  O   UNL     1      49.158  17.641 -22.273  1.00  0.00    -0.308 OA
ATOM      8  C   UNL     1      50.023  16.247 -19.906  1.00  0.00     0.183 C 
ATOM      9  C   UNL     1      49.851  15.530 -21.245  1.00  0.00     0.215 C 
BRANCH   5  10
ATOM     10  O   UNL     1      49.655  19.707 -21.264  1.00  0.00    -0.353 OA
ATOM     11  C   UNL     1      48.540  20.547 -21.539  1.00  0.00     0.198 C 
ENDBRANCH   5  10
BRANCH   6  12
ATOM     12  O   UNL     1      50.402  18.385 -18.863  1.00  0.00    -0.385 OA
ATOM     13  H   UNL     1      50.356  19.341 -19.070  1.00  0.00     0.211 HD
ENDBRANCH   6  12
BRANCH   8  14
ATOM     14  O   UNL     1      51.095  15.624 -19.175  1.00  0.00    -0.387 OA
ATOM     15  H   UNL     1      51.101  14.693 -19.480  1.00  0.00     0.211 HD
ENDBRANCH   8  14
BRANCH   9  16
ATOM     16  O   UNL     1      49.508  14.162 -20.999  1.00  0.00    -0.384 OA
ATOM     17  H   UNL     1      50.360  13.710 -20.833  1.00  0.00     0.211 HD
ENDBRANCH   9  16
ENDBRANCH   3   4
ENDBRANCH   1   3
BRANCH   1  18
ATOM     18  C   UNL     1      45.589  16.779 -22.678  1.00  0.00     0.067 A 
ATOM     19  C   UNL     1      45.466  17.889 -21.822  1.00  0.00     0.066 A 
ATOM     20  C   UNL     1      44.853  16.727 -23.872  1.00  0.00     0.066 A 
ATOM     21  C   UNL     1      44.615  18.932 -22.168  1.00  0.00     0.162 A 
ATOM     22  C   UNL     1      44.009  17.781 -24.197  1.00  0.00     0.162 A 
ATOM     23  C   UNL     1      43.889  18.877 -23.352  1.00  0.00     0.200 A 
BRANCH  21  24
ATOM     24  O   UNL     1      44.458  20.036 -21.377  1.00  0.00    -0.504 OA
ATOM     25  H   UNL     1      43.629  19.938 -20.874  1.00  0.00     0.293 HD
ENDBRANCH  21  24
BRANCH  22  26
ATOM     26  O   UNL     1      43.292  17.730 -25.356  1.00  0.00    -0.504 OA
ATOM     27  H   UNL     1      43.548  18.541 -25.842  1.00  0.00     0.293 HD
ENDBRANCH  22  26
BRANCH  23  28
ATOM     28  O   UNL     1      43.048  19.898 -23.702  1.00  0.00    -0.502 OA
ATOM     29  H   UNL     1      43.610  20.505 -24.227  1.00  0.00     0.293 HD
ENDBRANCH  23  28
ENDBRANCH   1  18
TORSDOF 10
ENDMDL
MODEL 9
REMARK VINA RESULT:    -5.091      3.110      5.729
REMARK INTER + INTRA:          -7.819
REMARK INTER:                  -7.210
REMARK INTRA:                  -0.609
REMARK UNBOUND:                -0.645
REMARK SMILES CO[C@H]1OC(OC(=O)c2cc(O)c(O)c(O)c2)[C@H](O)[C@@H](O)[C@@H]1O
REMARK SMILES IDX 7 1 8 2 6 3 5 4 3 5 22 6 4 7 20 8 18 9 2 10 1 11 23 12 21 14
REMARK SMILES IDX 19 16 9 18 17 19 10 20 15 21 11 22 13 23 16 24 12 26 14 28
REMARK H PARENT 23 13 21 15 19 17 16 25 12 27 14 29
ROOT
ATOM      1  C   UNL     1      48.101  18.884 -23.520  1.00  0.00     0.340 C 
ATOM      2  O   UNL     1      48.562  18.503 -24.583  1.00  0.00    -0.246 OA
ENDROOT
BRANCH   1   3
ATOM      3  O   UNL     1      48.612  19.840 -22.710  1.00  0.00    -0.429 OA
BRANCH   3   4
ATOM      4  C   UNL     1      49.080  21.029 -23.367  1.00  0.00     0.345 C 
ATOM      5  C   UNL     1      47.235  22.305 -22.558  1.00  0.00     0.285 C 
ATOM      6  C   UNL     1      48.133  23.128 -21.617  1.00  0.00     0.202 C 
ATOM      7  O   UNL     1      47.963  21.870 -23.701  1.00  0.00    -0.308 OA
ATOM      8  C   UNL     1      49.353  22.307 -21.217  1.00  0.00     0.183 C 
ATOM      9  C   UNL     1      50.073  21.790 -22.462  1.00  0.00     0.215 C 
BRANCH   5  10
ATOM     10  O   UNL     1      46.155  23.169 -22.943  1.00  0.00    -0.353 OA
ATOM     11  C   UNL     1      45.492  22.698 -24.110  1.00  0.00     0.198 C 
ENDBRANCH   5  10
BRANCH   6  12
ATOM     12  O   UNL     1      47.430  23.525 -20.429  1.00  0.00    -0.385 OA
ATOM     13  H   UNL     1      47.792  24.406 -20.201  1.00  0.00     0.211 HD
ENDBRANCH   6  12
BRANCH   8  14
ATOM     14  O   UNL     1      50.264  23.113 -20.449  1.00  0.00    -0.387 OA
ATOM     15  H   UNL     1      50.858  23.522 -21.111  1.00  0.00     0.211 HD
ENDBRANCH   8  14
BRANCH   9  16
ATOM     16  O   UNL     1      51.180  20.977 -22.056  1.00  0.00    -0.384 OA
ATOM     17  H   UNL     1      51.046  20.823 -21.099  1.00  0.00     0.211 HD
ENDBRANCH   9  16
ENDBRANCH   3   4
ENDBRANCH   1   3
BRANCH   1  18
ATOM     18  C   UNL     1      46.848  18.330 -22.940  1.00  0.00     0.067 A 
ATOM     19  C   UNL     1      46.846  16.974 -22.564  1.00  0.00     0.066 A 
ATOM     20  C   UNL     1      45.693  19.109 -22.770  1.00  0.00     0.066 A 
ATOM     21  C   UNL     1      45.695  16.414 -22.020  1.00  0.00     0.162 A 
ATOM     22  C   UNL     1      44.555  18.528 -22.226  1.00  0.00     0.162 A 
ATOM     23  C   UNL     1      44.554  17.190 -21.852  1.00  0.00     0.200 A 
BRANCH  21  24
ATOM     24  O   UNL     1      45.636  15.104 -21.634  1.00  0.00    -0.504 OA
ATOM     25  H   UNL     1      45.171  15.057 -20.778  1.00  0.00     0.293 HD
ENDBRANCH  21  24
BRANCH  22  26
ATOM     26  O   UNL     1      43.432  19.284 -22.062  1.00  0.00    -0.504 OA
ATOM     27  H   UNL     1      43.652  20.147 -22.468  1.00  0.00     0.293 HD
ENDBRANCH  22  26
BRANCH  23  28
ATOM     28  O   UNL     1      43.415  16.649 -21.319  1.00  0.00    -0.502 OA
ATOM     29  H   UNL     1      42.820  16.533 -22.089  1.00  0.00     0.293 HD
ENDBRANCH  23  28
ENDBRANCH   1  18
TORSDOF 10
ENDMDL
