MODEL 1
REMARK VINA RESULT:    -7.674      0.000      0.000
REMARK INTER + INTRA:         -11.399
REMARK INTER:                 -10.814
REMARK INTRA:                  -0.585
REMARK UNBOUND:                -0.585
REMARK SMILES CO[C@H]1OC(OC(=O)c2cc(O)c(O)c(O)c2)[C@H](O)[C@@H](O)[C@@H]1O
REMARK SMILES IDX 7 1 8 2 6 3 5 4 3 5 22 6 4 7 20 8 18 9 2 10 1 11 23 12 21 14
REMARK SMILES IDX 19 16 9 18 17 19 10 20 15 21 11 22 13 23 16 24 12 26 14 28
REMARK H PARENT 23 13 21 15 19 17 16 25 12 27 14 29
ROOT
ATOM      1  C   UNL     1      45.411  19.467 -26.357  1.00  0.00     0.340 C 
ATOM      2  O   UNL     1      45.971  19.020 -27.345  1.00  0.00    -0.246 OA
ENDROOT
BRANCH   1   3
ATOM      3  O   UNL     1      44.910  18.760 -25.318  1.00  0.00    -0.429 OA
BRANCH   3   4
ATOM      4  C   UNL     1      45.882  18.162 -24.445  1.00  0.00     0.345 C 
ATOM      5  C   UNL     1      45.609  19.885 -22.820  1.00  0.00     0.285 C 
ATOM      6  C   UNL     1      44.929  18.928 -21.825  1.00  0.00     0.202 C 
ATOM      7  O   UNL     1      46.520  19.182 -23.658  1.00  0.00    -0.308 OA
ATOM      8  C   UNL     1      44.230  17.805 -22.582  1.00  0.00     0.183 C 
ATOM      9  C   UNL     1      45.212  17.116 -23.528  1.00  0.00     0.215 C 
BRANCH   5  10
ATOM     10  O   UNL     1      46.300  20.865 -22.029  1.00  0.00    -0.353 OA
ATOM     11  C   UNL     1      47.427  20.308 -21.365  1.00  0.00     0.198 C 
ENDBRANCH   5  10
BRANCH   6  12
ATOM     12  O   UNL     1      43.963  19.612 -21.010  1.00  0.00    -0.385 OA
ATOM     13  H   UNL     1      44.470  19.956 -20.247  1.00  0.00     0.211 HD
ENDBRANCH   6  12
BRANCH   8  14
ATOM     14  O   UNL     1      43.708  16.834 -21.658  1.00  0.00    -0.387 OA
ATOM     15  H   UNL     1      43.987  17.150 -20.774  1.00  0.00     0.211 HD
ENDBRANCH   8  14
BRANCH   9  16
ATOM     16  O   UNL     1      44.516  16.105 -24.266  1.00  0.00    -0.384 OA
ATOM     17  H   UNL     1      44.744  16.269 -25.203  1.00  0.00     0.211 HD
ENDBRANCH   9  16
ENDBRANCH   3   4
ENDBRANCH   1   3
BRANCH   1  18
ATOM     18  C   UNL     1      45.197  20.924 -26.143  1.00  0.00     0.067 A 
ATOM     19  C   UNL     1      43.984  21.328 -25.556  1.00  0.00     0.066 A 
ATOM     20  C   UNL     1      46.155  21.883 -26.510  1.00  0.00     0.066 A 
ATOM     21  C   UNL     1      43.741  22.680 -25.340  1.00  0.00     0.162 A 
ATOM     22  C   UNL     1      45.890  23.228 -26.286  1.00  0.00     0.162 A 
ATOM     23  C   UNL     1      44.693  23.626 -25.705  1.00  0.00     0.200 A 
BRANCH  21  24
ATOM     24  O   UNL     1      42.583  23.129 -24.772  1.00  0.00    -0.504 OA
ATOM     25  H   UNL     1      42.726  24.042 -24.461  1.00  0.00     0.293 HD
ENDBRANCH  21  24
BRANCH  22  26
ATOM     26  O   UNL     1      46.819  24.161 -26.644  1.00  0.00    -0.504 OA
ATOM     27  H   UNL     1      46.588  24.955 -26.120  1.00  0.00     0.293 HD
ENDBRANCH  22  26
BRANCH  23  28
ATOM     28  O   UNL     1      44.464  24.959 -25.498  1.00  0.00    -0.502 OA
ATOM     29  H   UNL     1      43.761  25.187 -26.141  1.00  0.00     0.293 HD
ENDBRANCH  23  28
ENDBRANCH   1  18
TORSDOF 10
ENDMDL
MODEL 2
REMARK VINA RESULT:    -7.664      3.725      5.752
REMARK INTER + INTRA:         -11.384
REMARK INTER:                 -10.508
REMARK INTRA:                  -0.877
REMARK UNBOUND:                -0.585
REMARK SMILES CO[C@H]1OC(OC(=O)c2cc(O)c(O)c(O)c2)[C@H](O)[C@@H](O)[C@@H]1O
REMARK SMILES IDX 7 1 8 2 6 3 5 4 3 5 22 6 4 7 20 8 18 9 2 10 1 11 23 12 21 14
REMARK SMILES IDX 19 16 9 18 17 19 10 20 15 21 11 22 13 23 16 24 12 26 14 28
REMARK H PARENT 23 13 21 15 19 17 16 25 12 27 14 29
ROOT
ATOM      1  C   UNL     1      46.746  15.709 -22.312  1.00  0.00     0.340 C 
ATOM      2  O   UNL     1      46.714  14.521 -22.588  1.00  0.00    -0.246 OA
ENDROOT
BRANCH   1   3
ATOM      3  O   UNL     1      47.691  16.348 -21.584  1.00  0.00    -0.429 OA
BRANCH   3   4
ATOM      4  C   UNL     1      48.956  16.542 -22.237  1.00  0.00     0.345 C 
ATOM      5  C   UNL     1      49.503  18.380 -20.821  1.00  0.00     0.285 C 
ATOM      6  C   UNL     1      50.611  17.584 -20.108  1.00  0.00     0.202 C 
ATOM      7  O   UNL     1      49.335  17.926 -22.160  1.00  0.00    -0.308 OA
ATOM      8  C   UNL     1      50.287  16.095 -20.151  1.00  0.00     0.183 C 
ATOM      9  C   UNL     1      50.038  15.651 -21.592  1.00  0.00     0.215 C 
BRANCH   5  10
ATOM     10  O   UNL     1      49.917  19.755 -20.799  1.00  0.00    -0.353 OA
ATOM     11  C   UNL     1      50.996  19.995 -21.694  1.00  0.00     0.198 C 
ENDBRANCH   5  10
BRANCH   6  12
ATOM     12  O   UNL     1      50.753  17.989 -18.737  1.00  0.00    -0.385 OA
ATOM     13  H   UNL     1      49.983  17.601 -18.274  1.00  0.00     0.211 HD
ENDBRANCH   6  12
BRANCH   8  14
ATOM     14  O   UNL     1      51.381  15.334 -19.608  1.00  0.00    -0.387 OA
ATOM     15  H   UNL     1      51.559  14.638 -20.273  1.00  0.00     0.211 HD
ENDBRANCH   8  14
BRANCH   9  16
ATOM     16  O   UNL     1      49.683  14.264 -21.596  1.00  0.00    -0.384 OA
ATOM     17  H   UNL     1      48.842  14.217 -22.094  1.00  0.00     0.211 HD
ENDBRANCH   9  16
ENDBRANCH   3   4
ENDBRANCH   1   3
BRANCH   1  18
ATOM     18  C   UNL     1      45.704  16.669 -22.765  1.00  0.00     0.067 A 
ATOM     19  C   UNL     1      45.342  17.705 -21.885  1.00  0.00     0.066 A 
ATOM     20  C   UNL     1      45.085  16.565 -24.021  1.00  0.00     0.066 A 
ATOM     21  C   UNL     1      44.370  18.624 -22.267  1.00  0.00     0.162 A 
ATOM     22  C   UNL     1      44.116  17.493 -24.380  1.00  0.00     0.162 A 
ATOM     23  C   UNL     1      43.760  18.516 -23.511  1.00  0.00     0.200 A 
BRANCH  21  24
ATOM     24  O   UNL     1      43.981  19.651 -21.454  1.00  0.00    -0.504 OA
ATOM     25  H   UNL     1      44.638  20.367 -21.528  1.00  0.00     0.293 HD
ENDBRANCH  21  24
BRANCH  22  26
ATOM     26  O   UNL     1      43.512  17.391 -25.599  1.00  0.00    -0.504 OA
ATOM     27  H   UNL     1      43.273  18.310 -25.836  1.00  0.00     0.293 HD
ENDBRANCH  22  26
BRANCH  23  28
ATOM     28  O   UNL     1      42.802  19.414 -23.897  1.00  0.00    -0.502 OA
ATOM     29  H   UNL     1      42.373  19.685 -23.059  1.00  0.00     0.293 HD
ENDBRANCH  23  28
ENDBRANCH   1  18
TORSDOF 10
ENDMDL
MODEL 3
REMARK VINA RESULT:    -7.616      3.759      5.830
REMARK INTER + INTRA:         -11.317
REMARK INTER:                 -10.444
REMARK INTRA:                  -0.873
REMARK UNBOUND:                -0.585
REMARK SMILES CO[C@H]1OC(OC(=O)c2cc(O)c(O)c(O)c2)[C@H](O)[C@@H](O)[C@@H]1O
REMARK SMILES IDX 7 1 8 2 6 3 5 4 3 5 22 6 4 7 20 8 18 9 2 10 1 11 23 12 21 14
REMARK SMILES IDX 19 16 9 18 17 19 10 20 15 21 11 22 13 23 16 24 12 26 14 28
REMARK H PARENT 23 13 21 15 19 17 16 25 12 27 14 29
ROOT
ATOM      1  C   UNL     1      46.762  15.697 -22.274  1.00  0.00     0.340 C 
ATOM      2  O   UNL     1      46.723  14.518 -22.588  1.00  0.00    -0.246 OA
ENDROOT
BRANCH   1   3
ATOM      3  O   UNL     1      47.720  16.310 -21.541  1.00  0.00    -0.429 OA
BRANCH   3   4
ATOM      4  C   UNL     1      48.978  16.513 -22.203  1.00  0.00     0.345 C 
ATOM      5  C   UNL     1      49.531  18.342 -20.777  1.00  0.00     0.285 C 
ATOM      6  C   UNL     1      50.648  17.545 -20.080  1.00  0.00     0.202 C 
ATOM      7  O   UNL     1      49.353  17.898 -22.118  1.00  0.00    -0.308 OA
ATOM      8  C   UNL     1      50.330  16.056 -20.132  1.00  0.00     0.183 C 
ATOM      9  C   UNL     1      50.070  15.621 -21.574  1.00  0.00     0.215 C 
BRANCH   5  10
ATOM     10  O   UNL     1      49.940  19.719 -20.749  1.00  0.00    -0.353 OA
ATOM     11  C   UNL     1      51.000  19.974 -21.663  1.00  0.00     0.198 C 
ENDBRANCH   5  10
BRANCH   6  12
ATOM     12  O   UNL     1      50.801  17.940 -18.707  1.00  0.00    -0.385 OA
ATOM     13  H   UNL     1      49.939  18.329 -18.456  1.00  0.00     0.211 HD
ENDBRANCH   6  12
BRANCH   8  14
ATOM     14  O   UNL     1      51.431  15.295 -19.604  1.00  0.00    -0.387 OA
ATOM     15  H   UNL     1      51.015  14.571 -19.092  1.00  0.00     0.211 HD
ENDBRANCH   8  14
BRANCH   9  16
ATOM     16  O   UNL     1      49.719  14.233 -21.586  1.00  0.00    -0.384 OA
ATOM     17  H   UNL     1      48.747  14.214 -21.484  1.00  0.00     0.211 HD
ENDBRANCH   9  16
ENDBRANCH   3   4
ENDBRANCH   1   3
BRANCH   1  18
ATOM     18  C   UNL     1      45.717  16.673 -22.681  1.00  0.00     0.067 A 
ATOM     19  C   UNL     1      45.085  16.476 -23.923  1.00  0.00     0.066 A 
ATOM     20  C   UNL     1      45.357  17.765 -21.875  1.00  0.00     0.066 A 
ATOM     21  C   UNL     1      44.103  17.366 -24.343  1.00  0.00     0.162 A 
ATOM     22  C   UNL     1      44.375  18.642 -22.316  1.00  0.00     0.162 A 
ATOM     23  C   UNL     1      43.751  18.446 -23.541  1.00  0.00     0.200 A 
BRANCH  21  24
ATOM     24  O   UNL     1      43.455  17.223 -25.538  1.00  0.00    -0.504 OA
ATOM     25  H   UNL     1      43.262  18.110 -25.891  1.00  0.00     0.293 HD
ENDBRANCH  21  24
BRANCH  22  26
ATOM     26  O   UNL     1      44.027  19.704 -21.534  1.00  0.00    -0.504 OA
ATOM     27  H   UNL     1      44.455  19.527 -20.671  1.00  0.00     0.293 HD
ENDBRANCH  22  26
BRANCH  23  28
ATOM     28  O   UNL     1      42.787  19.329 -23.945  1.00  0.00    -0.502 OA
ATOM     29  H   UNL     1      43.150  20.208 -23.710  1.00  0.00     0.293 HD
ENDBRANCH  23  28
ENDBRANCH   1  18
TORSDOF 10
ENDMDL
MODEL 4
REMARK VINA RESULT:    -7.561      3.881      7.270
REMARK INTER + INTRA:         -11.240
REMARK INTER:                 -10.919
REMARK INTRA:                  -0.321
REMARK UNBOUND:                -0.585
REMARK SMILES CO[C@H]1OC(OC(=O)c2cc(O)c(O)c(O)c2)[C@H](O)[C@@H](O)[C@@H]1O
REMARK SMILES IDX 7 1 8 2 6 3 5 4 3 5 22 6 4 7 20 8 18 9 2 10 1 11 23 12 21 14
REMARK SMILES IDX 19 16 9 18 17 19 10 20 15 21 11 22 13 23 16 24 12 26 14 28
REMARK H PARENT 23 13 21 15 19 17 16 25 12 27 14 29
ROOT
ATOM      1  C   UNL     1      48.371  17.078 -22.858  1.00  0.00     0.340 C 
ATOM      2  O   UNL     1      48.597  16.761 -24.014  1.00  0.00    -0.246 OA
ENDROOT
BRANCH   1   3
ATOM      3  O   UNL     1      47.240  17.650 -22.380  1.00  0.00    -0.429 OA
BRANCH   3   4
ATOM      4  C   UNL     1      46.892  18.918 -22.956  1.00  0.00     0.345 C 
ATOM      5  C   UNL     1      45.350  17.906 -24.467  1.00  0.00     0.285 C 
ATOM      6  C   UNL     1      44.138  18.517 -23.742  1.00  0.00     0.202 C 
ATOM      7  O   UNL     1      46.497  18.738 -24.326  1.00  0.00    -0.308 OA
ATOM      8  C   UNL     1      44.477  18.749 -22.274  1.00  0.00     0.183 C 
ATOM      9  C   UNL     1      45.753  19.581 -22.152  1.00  0.00     0.215 C 
BRANCH   5  10
ATOM     10  O   UNL     1      44.976  17.788 -25.849  1.00  0.00    -0.353 OA
ATOM     11  C   UNL     1      44.966  19.051 -26.503  1.00  0.00     0.198 C 
ENDBRANCH   5  10
BRANCH   6  12
ATOM     12  O   UNL     1      42.987  17.662 -23.824  1.00  0.00    -0.385 OA
ATOM     13  H   UNL     1      42.961  17.185 -22.970  1.00  0.00     0.211 HD
ENDBRANCH   6  12
BRANCH   8  14
ATOM     14  O   UNL     1      43.399  19.443 -21.621  1.00  0.00    -0.387 OA
ATOM     15  H   UNL     1      43.342  19.040 -20.730  1.00  0.00     0.211 HD
ENDBRANCH   8  14
BRANCH   9  16
ATOM     16  O   UNL     1      46.076  19.735 -20.765  1.00  0.00    -0.384 OA
ATOM     17  H   UNL     1      45.430  20.383 -20.422  1.00  0.00     0.211 HD
ENDBRANCH   9  16
ENDBRANCH   3   4
ENDBRANCH   1   3
BRANCH   1  18
ATOM     18  C   UNL     1      49.348  16.864 -21.757  1.00  0.00     0.067 A 
ATOM     19  C   UNL     1      49.977  15.608 -21.676  1.00  0.00     0.066 A 
ATOM     20  C   UNL     1      49.647  17.863 -20.816  1.00  0.00     0.066 A 
ATOM     21  C   UNL     1      50.896  15.364 -20.661  1.00  0.00     0.162 A 
ATOM     22  C   UNL     1      50.567  17.596 -19.811  1.00  0.00     0.162 A 
ATOM     23  C   UNL     1      51.189  16.356 -19.732  1.00  0.00     0.200 A 
BRANCH  21  24
ATOM     24  O   UNL     1      51.539  14.165 -20.536  1.00  0.00    -0.504 OA
ATOM     25  H   UNL     1      52.499  14.333 -20.496  1.00  0.00     0.293 HD
ENDBRANCH  21  24
BRANCH  22  26
ATOM     26  O   UNL     1      50.856  18.565 -18.895  1.00  0.00    -0.504 OA
ATOM     27  H   UNL     1      49.984  18.872 -18.575  1.00  0.00     0.293 HD
ENDBRANCH  22  26
BRANCH  23  28
ATOM     28  O   UNL     1      52.091  16.127 -18.729  1.00  0.00    -0.502 OA
ATOM     29  H   UNL     1      52.252  17.012 -18.341  1.00  0.00     0.293 HD
ENDBRANCH  23  28
ENDBRANCH   1  18
TORSDOF 10
ENDMDL
MODEL 5
REMARK VINA RESULT:    -7.398      3.617      7.073
REMARK INTER + INTRA:         -11.010
REMARK INTER:                 -10.348
REMARK INTRA:                  -0.663
REMARK UNBOUND:                -0.585
REMARK SMILES CO[C@H]1OC(OC(=O)c2cc(O)c(O)c(O)c2)[C@H](O)[C@@H](O)[C@@H]1O
REMARK SMILES IDX 7 1 8 2 6 3 5 4 3 5 22 6 4 7 20 8 18 9 2 10 1 11 23 12 21 14
REMARK SMILES IDX 19 16 9 18 17 19 10 20 15 21 11 22 13 23 16 24 12 26 14 28
REMARK H PARENT 23 13 21 15 19 17 16 25 12 27 14 29
ROOT
ATOM      1  C   UNL     1      48.142  18.890 -21.568  1.00  0.00     0.340 C 
ATOM      2  O   UNL     1      48.422  19.993 -21.126  1.00  0.00    -0.246 OA
ENDROOT
BRANCH   1   3
ATOM      3  O   UNL     1      47.046  18.560 -22.291  1.00  0.00    -0.429 OA
BRANCH   3   4
ATOM      4  C   UNL     1      45.789  19.000 -21.753  1.00  0.00     0.345 C 
ATOM      5  C   UNL     1      45.210  20.108 -23.784  1.00  0.00     0.285 C 
ATOM      6  C   UNL     1      44.099  19.091 -24.098  1.00  0.00     0.202 C 
ATOM      7  O   UNL     1      45.399  20.234 -22.378  1.00  0.00    -0.308 OA
ATOM      8  C   UNL     1      44.433  17.747 -23.461  1.00  0.00     0.183 C 
ATOM      9  C   UNL     1      44.704  17.923 -21.968  1.00  0.00     0.215 C 
BRANCH   5  10
ATOM     10  O   UNL     1      44.787  21.356 -24.353  1.00  0.00    -0.353 OA
ATOM     11  C   UNL     1      45.601  22.438 -23.917  1.00  0.00     0.198 C 
ENDBRANCH   5  10
BRANCH   6  12
ATOM     12  O   UNL     1      43.936  18.907 -25.513  1.00  0.00    -0.385 OA
ATOM     13  H   UNL     1      43.195  18.273 -25.605  1.00  0.00     0.211 HD
ENDBRANCH   6  12
BRANCH   8  14
ATOM     14  O   UNL     1      43.338  16.830 -23.634  1.00  0.00    -0.387 OA
ATOM     15  H   UNL     1      42.533  17.384 -23.575  1.00  0.00     0.211 HD
ENDBRANCH   8  14
BRANCH   9  16
ATOM     16  O   UNL     1      45.070  16.656 -21.409  1.00  0.00    -0.384 OA
ATOM     17  H   UNL     1      46.004  16.524 -21.666  1.00  0.00     0.211 HD
ENDBRANCH   9  16
ENDBRANCH   3   4
ENDBRANCH   1   3
BRANCH   1  18
ATOM     18  C   UNL     1      49.011  17.699 -21.371  1.00  0.00     0.067 A 
ATOM     19  C   UNL     1      50.271  17.899 -20.779  1.00  0.00     0.066 A 
ATOM     20  C   UNL     1      48.612  16.409 -21.757  1.00  0.00     0.066 A 
ATOM     21  C   UNL     1      51.117  16.814 -20.578  1.00  0.00     0.162 A 
ATOM     22  C   UNL     1      49.474  15.340 -21.548  1.00  0.00     0.162 A 
ATOM     23  C   UNL     1      50.718  15.539 -20.962  1.00  0.00     0.200 A 
BRANCH  21  24
ATOM     24  O   UNL     1      52.350  16.949 -20.006  1.00  0.00    -0.504 OA
ATOM     25  H   UNL     1      53.022  16.915 -20.712  1.00  0.00     0.293 HD
ENDBRANCH  21  24
BRANCH  22  26
ATOM     26  O   UNL     1      49.088  14.087 -21.925  1.00  0.00    -0.504 OA
ATOM     27  H   UNL     1      48.654  13.711 -21.132  1.00  0.00     0.293 HD
ENDBRANCH  22  26
BRANCH  23  28
ATOM     28  O   UNL     1      51.541  14.463 -20.770  1.00  0.00    -0.502 OA
ATOM     29  H   UNL     1      52.440  14.813 -20.943  1.00  0.00     0.293 HD
ENDBRANCH  23  28
ENDBRANCH   1  18
TORSDOF 10
ENDMDL
MODEL 6
REMARK VINA RESULT:    -7.352      4.313      7.038
REMARK INTER + INTRA:         -10.945
REMARK INTER:                 -10.282
REMARK INTRA:                  -0.663
REMARK UNBOUND:                -0.585
REMARK SMILES CO[C@H]1OC(OC(=O)c2cc(O)c(O)c(O)c2)[C@H](O)[C@@H](O)[C@@H]1O
REMARK SMILES IDX 7 1 8 2 6 3 5 4 3 5 22 6 4 7 20 8 18 9 2 10 1 11 23 12 21 14
REMARK SMILES IDX 19 16 9 18 17 19 10 20 15 21 11 22 13 23 16 24 12 26 14 28
REMARK H PARENT 23 13 21 15 19 17 16 25 12 27 14 29
ROOT
ATOM      1  C   UNL     1      48.530  19.316 -22.226  1.00  0.00     0.340 C 
ATOM      2  O   UNL     1      48.612  20.504 -22.497  1.00  0.00    -0.246 OA
ENDROOT
BRANCH   1   3
ATOM      3  O   UNL     1      49.556  18.461 -22.008  1.00  0.00    -0.429 OA
BRANCH   3   4
ATOM      4  C   UNL     1      50.381  18.755 -20.869  1.00  0.00     0.345 C 
ATOM      5  C   UNL     1      49.983  16.605 -19.919  1.00  0.00     0.285 C 
ATOM      6  C   UNL     1      51.434  16.155 -20.168  1.00  0.00     0.202 C 
ATOM      7  O   UNL     1      49.915  18.014 -19.729  1.00  0.00    -0.308 OA
ATOM      8  C   UNL     1      52.009  16.903 -21.365  1.00  0.00     0.183 C 
ATOM      9  C   UNL     1      51.856  18.411 -21.168  1.00  0.00     0.215 C 
BRANCH   5  10
ATOM     10  O   UNL     1      49.543  15.912 -18.741  1.00  0.00    -0.353 OA
ATOM     11  C   UNL     1      50.457  16.072 -17.662  1.00  0.00     0.198 C 
ENDBRANCH   5  10
BRANCH   6  12
ATOM     12  O   UNL     1      51.513  14.743 -20.421  1.00  0.00    -0.385 OA
ATOM     13  H   UNL     1      51.311  14.318 -19.562  1.00  0.00     0.211 HD
ENDBRANCH   6  12
BRANCH   8  14
ATOM     14  O   UNL     1      53.404  16.590 -21.522  1.00  0.00    -0.387 OA
ATOM     15  H   UNL     1      53.660  16.149 -20.686  1.00  0.00     0.211 HD
ENDBRANCH   8  14
BRANCH   9  16
ATOM     16  O   UNL     1      52.352  19.084 -22.331  1.00  0.00    -0.384 OA
ATOM     17  H   UNL     1      53.170  18.606 -22.573  1.00  0.00     0.211 HD
ENDBRANCH   9  16
ENDBRANCH   3   4
ENDBRANCH   1   3
BRANCH   1  18
ATOM     18  C   UNL     1      47.228  18.611 -22.083  1.00  0.00     0.067 A 
ATOM     19  C   UNL     1      46.069  19.397 -21.948  1.00  0.00     0.066 A 
ATOM     20  C   UNL     1      47.132  17.210 -22.076  1.00  0.00     0.066 A 
ATOM     21  C   UNL     1      44.832  18.779 -21.809  1.00  0.00     0.162 A 
ATOM     22  C   UNL     1      45.885  16.615 -21.935  1.00  0.00     0.162 A 
ATOM     23  C   UNL     1      44.742  17.392 -21.803  1.00  0.00     0.200 A 
BRANCH  21  24
ATOM     24  O   UNL     1      43.673  19.492 -21.677  1.00  0.00    -0.504 OA
ATOM     25  H   UNL     1      42.924  18.900 -21.872  1.00  0.00     0.293 HD
ENDBRANCH  21  24
BRANCH  22  26
ATOM     26  O   UNL     1      45.792  15.254 -21.926  1.00  0.00    -0.504 OA
ATOM     27  H   UNL     1      46.679  14.943 -22.199  1.00  0.00     0.293 HD
ENDBRANCH  22  26
BRANCH  23  28
ATOM     28  O   UNL     1      43.529  16.773 -21.666  1.00  0.00    -0.502 OA
ATOM     29  H   UNL     1      43.137  17.182 -20.867  1.00  0.00     0.293 HD
ENDBRANCH  23  28
ENDBRANCH   1  18
TORSDOF 10
ENDMDL
MODEL 7
REMARK VINA RESULT:    -7.280      1.681      6.192
REMARK INTER + INTRA:         -10.844
REMARK INTER:                 -10.181
REMARK INTRA:                  -0.663
REMARK UNBOUND:                -0.585
REMARK SMILES CO[C@H]1OC(OC(=O)c2cc(O)c(O)c(O)c2)[C@H](O)[C@@H](O)[C@@H]1O
REMARK SMILES IDX 7 1 8 2 6 3 5 4 3 5 22 6 4 7 20 8 18 9 2 10 1 11 23 12 21 14
REMARK SMILES IDX 19 16 9 18 17 19 10 20 15 21 11 22 13 23 16 24 12 26 14 28
REMARK H PARENT 23 13 21 15 19 17 16 25 12 27 14 29
ROOT
ATOM      1  C   UNL     1      47.472  19.505 -24.341  1.00  0.00     0.340 C 
ATOM      2  O   UNL     1      48.493  19.011 -24.792  1.00  0.00    -0.246 OA
ENDROOT
BRANCH   1   3
ATOM      3  O   UNL     1      47.048  20.780 -24.503  1.00  0.00    -0.429 OA
BRANCH   3   4
ATOM      4  C   UNL     1      47.452  21.421 -25.723  1.00  0.00     0.345 C 
ATOM      5  C   UNL     1      45.370  20.922 -26.774  1.00  0.00     0.285 C 
ATOM      6  C   UNL     1      44.944  22.401 -26.778  1.00  0.00     0.202 C 
ATOM      7  O   UNL     1      46.788  20.804 -26.838  1.00  0.00    -0.308 OA
ATOM      8  C   UNL     1      45.614  23.135 -25.622  1.00  0.00     0.183 C 
ATOM      9  C   UNL     1      47.127  22.929 -25.672  1.00  0.00     0.215 C 
BRANCH   5  10
ATOM     10  O   UNL     1      44.758  20.323 -27.927  1.00  0.00    -0.353 OA
ATOM     11  C   UNL     1      45.400  20.723 -29.132  1.00  0.00     0.198 C 
ENDBRANCH   5  10
BRANCH   6  12
ATOM     12  O   UNL     1      43.519  22.540 -26.654  1.00  0.00    -0.385 OA
ATOM     13  H   UNL     1      43.240  23.031 -27.454  1.00  0.00     0.211 HD
ENDBRANCH   6  12
BRANCH   8  14
ATOM     14  O   UNL     1      45.329  24.543 -25.697  1.00  0.00    -0.387 OA
ATOM     15  H   UNL     1      46.035  24.914 -26.266  1.00  0.00     0.211 HD
ENDBRANCH   8  14
BRANCH   9  16
ATOM     16  O   UNL     1      47.723  23.582 -24.545  1.00  0.00    -0.384 OA
ATOM     17  H   UNL     1      47.735  24.532 -24.777  1.00  0.00     0.211 HD
ENDBRANCH   9  16
ENDBRANCH   3   4
ENDBRANCH   1   3
BRANCH   1  18
ATOM     18  C   UNL     1      46.501  18.736 -23.518  1.00  0.00     0.067 A 
ATOM     19  C   UNL     1      45.391  19.428 -23.000  1.00  0.00     0.066 A 
ATOM     20  C   UNL     1      46.666  17.368 -23.248  1.00  0.00     0.066 A 
ATOM     21  C   UNL     1      44.459  18.748 -22.223  1.00  0.00     0.162 A 
ATOM     22  C   UNL     1      45.723  16.710 -22.468  1.00  0.00     0.162 A 
ATOM     23  C   UNL     1      44.626  17.393 -21.959  1.00  0.00     0.200 A 
BRANCH  21  24
ATOM     24  O   UNL     1      43.361  19.368 -21.696  1.00  0.00    -0.504 OA
ATOM     25  H   UNL     1      43.053  18.850 -20.930  1.00  0.00     0.293 HD
ENDBRANCH  21  24
BRANCH  22  26
ATOM     26  O   UNL     1      45.884  15.382 -22.204  1.00  0.00    -0.504 OA
ATOM     27  H   UNL     1      46.665  15.339 -21.615  1.00  0.00     0.293 HD
ENDBRANCH  22  26
BRANCH  23  28
ATOM     28  O   UNL     1      43.717  16.714 -21.195  1.00  0.00    -0.502 OA
ATOM     29  H   UNL     1      43.385  17.384 -20.561  1.00  0.00     0.293 HD
ENDBRANCH  23  28
ENDBRANCH   1  18
TORSDOF 10
ENDMDL
MODEL 8
REMARK VINA RESULT:    -7.192      1.914      2.922
REMARK INTER + INTRA:         -10.720
REMARK INTER:                  -9.949
REMARK INTRA:                  -0.771
REMARK UNBOUND:                -0.585
REMARK SMILES CO[C@H]1OC(OC(=O)c2cc(O)c(O)c(O)c2)[C@H](O)[C@@H](O)[C@@H]1O
REMARK SMILES IDX 7 1 8 2 6 3 5 4 3 5 22 6 4 7 20 8 18 9 2 10 1 11 23 12 21 14
REMARK SMILES IDX 19 16 9 18 17 19 10 20 15 21 11 22 13 23 16 24 12 26 14 28
REMARK H PARENT 23 13 21 15 19 17 16 25 12 27 14 29
ROOT
ATOM      1  C   UNL     1      44.263  20.047 -24.294  1.00  0.00     0.340 C 
ATOM      2  O   UNL     1      43.087  19.828 -24.538  1.00  0.00    -0.246 OA
ENDROOT
BRANCH   1   3
ATOM      3  O   UNL     1      45.118  19.235 -23.629  1.00  0.00    -0.429 OA
BRANCH   3   4
ATOM      4  C   UNL     1      45.312  17.932 -24.200  1.00  0.00     0.345 C 
ATOM      5  C   UNL     1      47.518  17.776 -23.310  1.00  0.00     0.285 C 
ATOM      6  C   UNL     1      47.107  16.679 -22.312  1.00  0.00     0.202 C 
ATOM      7  O   UNL     1      46.707  17.727 -24.479  1.00  0.00    -0.308 OA
ATOM      8  C   UNL     1      45.630  16.821 -21.966  1.00  0.00     0.183 C 
ATOM      9  C   UNL     1      44.789  16.840 -23.242  1.00  0.00     0.215 C 
BRANCH   5  10
ATOM     10  O   UNL     1      48.894  17.529 -23.637  1.00  0.00    -0.353 OA
ATOM     11  C   UNL     1      49.595  18.735 -23.915  1.00  0.00     0.198 C 
ENDBRANCH   5  10
BRANCH   6  12
ATOM     12  O   UNL     1      47.877  16.751 -21.101  1.00  0.00    -0.385 OA
ATOM     13  H   UNL     1      47.519  17.523 -20.616  1.00  0.00     0.211 HD
ENDBRANCH   6  12
BRANCH   8  14
ATOM     14  O   UNL     1      45.205  15.721 -21.141  1.00  0.00    -0.387 OA
ATOM     15  H   UNL     1      46.005  15.167 -21.029  1.00  0.00     0.211 HD
ENDBRANCH   8  14
BRANCH   9  16
ATOM     16  O   UNL     1      43.414  17.031 -22.890  1.00  0.00    -0.384 OA
ATOM     17  H   UNL     1      43.035  16.130 -22.843  1.00  0.00     0.211 HD
ENDBRANCH   9  16
ENDBRANCH   3   4
ENDBRANCH   1   3
BRANCH   1  18
ATOM     18  C   UNL     1      44.955  21.292 -24.721  1.00  0.00     0.067 A 
ATOM     19  C   UNL     1      46.348  21.232 -24.914  1.00  0.00     0.066 A 
ATOM     20  C   UNL     1      44.268  22.498 -24.927  1.00  0.00     0.066 A 
ATOM     21  C   UNL     1      47.036  22.373 -25.311  1.00  0.00     0.162 A 
ATOM     22  C   UNL     1      44.977  23.626 -25.322  1.00  0.00     0.162 A 
ATOM     23  C   UNL     1      46.351  23.566 -25.514  1.00  0.00     0.200 A 
BRANCH  21  24
ATOM     24  O   UNL     1      48.387  22.373 -25.516  1.00  0.00    -0.504 OA
ATOM     25  H   UNL     1      48.702  23.296 -25.495  1.00  0.00     0.293 HD
ENDBRANCH  21  24
BRANCH  22  26
ATOM     26  O   UNL     1      44.310  24.799 -25.520  1.00  0.00    -0.504 OA
ATOM     27  H   UNL     1      44.237  24.882 -26.493  1.00  0.00     0.293 HD
ENDBRANCH  22  26
BRANCH  23  28
ATOM     28  O   UNL     1      47.018  24.695 -25.903  1.00  0.00    -0.502 OA
ATOM     29  H   UNL     1      47.740  24.364 -26.478  1.00  0.00     0.293 HD
ENDBRANCH  23  28
ENDBRANCH   1  18
TORSDOF 10
ENDMDL
MODEL 9
REMARK VINA RESULT:    -7.045      1.907      6.444
REMARK INTER + INTRA:         -10.512
REMARK INTER:                  -9.688
REMARK INTRA:                  -0.824
REMARK UNBOUND:                -0.585
REMARK SMILES CO[C@H]1OC(OC(=O)c2cc(O)c(O)c(O)c2)[C@H](O)[C@@H](O)[C@@H]1O
REMARK SMILES IDX 7 1 8 2 6 3 5 4 3 5 22 6 4 7 20 8 18 9 2 10 1 11 23 12 21 14
REMARK SMILES IDX 19 16 9 18 17 19 10 20 15 21 11 22 13 23 16 24 12 26 14 28
REMARK H PARENT 23 13 21 15 19 17 16 25 12 27 14 29
ROOT
ATOM      1  C   UNL     1      47.388  20.304 -22.443  1.00  0.00     0.340 C 
ATOM      2  O   UNL     1      48.447  20.700 -21.983  1.00  0.00    -0.246 OA
ENDROOT
BRANCH   1   3
ATOM      3  O   UNL     1      46.443  21.050 -23.061  1.00  0.00    -0.429 OA
BRANCH   3   4
ATOM      4  C   UNL     1      46.553  21.135 -24.491  1.00  0.00     0.345 C 
ATOM      5  C   UNL     1      44.272  20.510 -24.790  1.00  0.00     0.285 C 
ATOM      6  C   UNL     1      43.884  21.915 -25.282  1.00  0.00     0.202 C 
ATOM      7  O   UNL     1      45.630  20.220 -25.104  1.00  0.00    -0.308 OA
ATOM      8  C   UNL     1      44.824  22.952 -24.680  1.00  0.00     0.183 C 
ATOM      9  C   UNL     1      46.277  22.577 -24.968  1.00  0.00     0.215 C 
BRANCH   5  10
ATOM     10  O   UNL     1      43.391  19.591 -25.455  1.00  0.00    -0.353 OA
ATOM     11  C   UNL     1      42.964  18.548 -24.588  1.00  0.00     0.198 C 
ENDBRANCH   5  10
BRANCH   6  12
ATOM     12  O   UNL     1      42.533  22.246 -24.921  1.00  0.00    -0.385 OA
ATOM     13  H   UNL     1      42.476  22.071 -23.960  1.00  0.00     0.211 HD
ENDBRANCH   6  12
BRANCH   8  14
ATOM     14  O   UNL     1      44.555  24.250 -25.239  1.00  0.00    -0.387 OA
ATOM     15  H   UNL     1      44.340  24.080 -26.179  1.00  0.00     0.211 HD
ENDBRANCH   8  14
BRANCH   9  16
ATOM     16  O   UNL     1      47.138  23.537 -24.344  1.00  0.00    -0.384 OA
ATOM     17  H   UNL     1      46.567  24.310 -24.159  1.00  0.00     0.211 HD
ENDBRANCH   9  16
ENDBRANCH   3   4
ENDBRANCH   1   3
BRANCH   1  18
ATOM     18  C   UNL     1      46.971  18.877 -22.392  1.00  0.00     0.067 A 
ATOM     19  C   UNL     1      47.915  17.906 -22.772  1.00  0.00     0.066 A 
ATOM     20  C   UNL     1      45.684  18.487 -21.988  1.00  0.00     0.066 A 
ATOM     21  C   UNL     1      47.566  16.560 -22.742  1.00  0.00     0.162 A 
ATOM     22  C   UNL     1      45.359  17.137 -21.967  1.00  0.00     0.162 A 
ATOM     23  C   UNL     1      46.291  16.179 -22.341  1.00  0.00     0.200 A 
BRANCH  21  24
ATOM     24  O   UNL     1      48.443  15.574 -23.098  1.00  0.00    -0.504 OA
ATOM     25  H   UNL     1      48.010  14.712 -22.956  1.00  0.00     0.293 HD
ENDBRANCH  21  24
BRANCH  22  26
ATOM     26  O   UNL     1      44.108  16.758 -21.576  1.00  0.00    -0.504 OA
ATOM     27  H   UNL     1      44.092  15.787 -21.702  1.00  0.00     0.293 HD
ENDBRANCH  22  26
BRANCH  23  28
ATOM     28  O   UNL     1      45.937  14.857 -22.308  1.00  0.00    -0.502 OA
ATOM     29  H   UNL     1      45.990  14.616 -21.360  1.00  0.00     0.293 HD
ENDBRANCH  23  28
ENDBRANCH   1  18
TORSDOF 10
ENDMDL
