MODEL 1
REMARK VINA RESULT:    -5.408      0.000      0.000
REMARK INTER + INTRA:          -8.831
REMARK INTER:                  -7.779
REMARK INTRA:                  -1.052
REMARK UNBOUND:                -1.052
REMARK SMILES O=C([O-])C1=CO[C@@H](O[C@@H]2O[C@H](CO)[C@@H](O)[C@H](O)[C@H]2O)[C@@H]2[C@@H](CO)CC[C@H]12
REMARK SMILES IDX 8 1 7 2 24 3 25 4 21 5 26 6 20 7 4 8 5 9 6 10 22 11 23 12
REMARK SMILES IDX 2 14 1 15 3 16 9 17 18 18 10 19 16 20 11 21 14 22 19 23
REMARK SMILES IDX 17 25 12 27 13 28 15 30
REMARK H PARENT 23 13 19 24 17 26 13 29 15 31
ROOT
ATOM      1  O   UNL     1      46.492  20.122 -23.816  1.00  0.00    -0.310 OA
ENDROOT
BRANCH   1   2
ATOM      2  C   UNL     1      46.721  21.383 -23.170  1.00  0.00     0.313 C 
ATOM      3  C   UNL     1      48.752  24.203 -24.700  1.00  0.00     0.007 C 
ATOM      4  C   UNL     1      47.810  23.827 -25.841  1.00  0.00     0.009 C 
ATOM      5  C   UNL     1      48.152  23.533 -23.468  1.00  0.00     0.024 C 
ATOM      6  C   UNL     1      47.033  22.574 -25.385  1.00  0.00     0.034 C 
ATOM      7  C   UNL     1      47.691  22.182 -24.043  1.00  0.00     0.071 C 
ATOM      8  C   UNL     1      45.559  22.834 -25.215  1.00  0.00     0.013 C 
ATOM      9  C   UNL     1      44.927  22.626 -24.053  1.00  0.00     0.196 C 
ATOM     10  O   UNL     1      45.496  22.092 -22.924  1.00  0.00    -0.472 OA
BRANCH   5  11
ATOM     11  C   UNL     1      49.152  23.426 -22.325  1.00  0.00     0.160 C 
BRANCH  11  12
ATOM     12  O   UNL     1      48.554  23.792 -21.088  1.00  0.00    -0.396 OA
ATOM     13  H   UNL     1      48.886  23.173 -20.413  1.00  0.00     0.210 HD
ENDBRANCH  11  12
ENDBRANCH   5  11
BRANCH   8  14
ATOM     14  C   UNL     1      44.751  23.352 -26.422  1.00  0.00     0.071 C 
ATOM     15  O   UNL     1      44.745  24.605 -26.583  1.00  0.00    -0.545 OA
ATOM     16  O   UNL     1      44.185  22.450 -27.103  1.00  0.00    -0.545 OA
ENDBRANCH   8  14
ENDBRANCH   1   2
BRANCH   1  17
ATOM     17  C   UNL     1      46.411  19.044 -22.891  1.00  0.00     0.286 C 
ATOM     18  C   UNL     1      44.936  18.602 -22.879  1.00  0.00     0.202 C 
ATOM     19  O   UNL     1      47.256  17.974 -23.325  1.00  0.00    -0.341 OA
ATOM     20  C   UNL     1      44.778  17.368 -21.998  1.00  0.00     0.179 C 
ATOM     21  C   UNL     1      47.175  16.828 -22.457  1.00  0.00     0.178 C 
ATOM     22  C   UNL     1      45.748  16.268 -22.430  1.00  0.00     0.177 C 
BRANCH  18  23
ATOM     23  O   UNL     1      44.065  19.624 -22.372  1.00  0.00    -0.385 OA
ATOM     24  H   UNL     1      43.393  19.785 -23.071  1.00  0.00     0.211 HD
ENDBRANCH  18  23
BRANCH  20  25
ATOM     25  O   UNL     1      43.434  16.864 -22.073  1.00  0.00    -0.387 OA
ATOM     26  H   UNL     1      42.991  17.240 -21.282  1.00  0.00     0.211 HD
ENDBRANCH  20  25
BRANCH  21  27
ATOM     27  C   UNL     1      48.171  15.788 -22.981  1.00  0.00     0.191 C 
BRANCH  27  28
ATOM     28  O   UNL     1      48.006  14.559 -22.270  1.00  0.00    -0.394 OA
ATOM     29  H   UNL     1      48.263  13.855 -22.899  1.00  0.00     0.210 HD
ENDBRANCH  27  28
ENDBRANCH  21  27
BRANCH  22  30
ATOM     30  O   UNL     1      45.635  15.163 -21.529  1.00  0.00    -0.387 OA
ATOM     31  H   UNL     1      45.117  15.509 -20.773  1.00  0.00     0.211 HD
ENDBRANCH  22  30
ENDBRANCH   1  17
TORSDOF 10
ENDMDL
MODEL 2
REMARK VINA RESULT:    -5.171      2.529      4.715
REMARK INTER + INTRA:          -8.490
REMARK INTER:                  -7.480
REMARK INTRA:                  -1.009
REMARK UNBOUND:                -1.052
REMARK SMILES O=C([O-])C1=CO[C@@H](O[C@@H]2O[C@H](CO)[C@@H](O)[C@H](O)[C@H]2O)[C@@H]2[C@@H](CO)CC[C@H]12
REMARK SMILES IDX 8 1 7 2 24 3 25 4 21 5 26 6 20 7 4 8 5 9 6 10 22 11 23 12
REMARK SMILES IDX 2 14 1 15 3 16 9 17 18 18 10 19 16 20 11 21 14 22 19 23
REMARK SMILES IDX 17 25 12 27 13 28 15 30
REMARK H PARENT 23 13 19 24 17 26 13 29 15 31
ROOT
ATOM      1  O   UNL     1      48.072  17.712 -23.005  1.00  0.00    -0.310 OA
ENDROOT
BRANCH   1   2
ATOM      2  C   UNL     1      47.363  18.848 -22.488  1.00  0.00     0.313 C 
ATOM      3  C   UNL     1      45.774  21.519 -24.671  1.00  0.00     0.007 C 
ATOM      4  C   UNL     1      45.259  20.231 -25.309  1.00  0.00     0.009 C 
ATOM      5  C   UNL     1      46.327  21.084 -23.318  1.00  0.00     0.024 C 
ATOM      6  C   UNL     1      45.971  19.062 -24.595  1.00  0.00     0.034 C 
ATOM      7  C   UNL     1      47.003  19.748 -23.672  1.00  0.00     0.071 C 
ATOM      8  C   UNL     1      45.021  18.199 -23.805  1.00  0.00     0.013 C 
ATOM      9  C   UNL     1      45.169  17.995 -22.489  1.00  0.00     0.196 C 
ATOM     10  O   UNL     1      46.209  18.462 -21.726  1.00  0.00    -0.472 OA
BRANCH   5  11
ATOM     11  C   UNL     1      47.260  22.125 -22.715  1.00  0.00     0.160 C 
BRANCH  11  12
ATOM     12  O   UNL     1      46.541  23.287 -22.321  1.00  0.00    -0.396 OA
ATOM     13  H   UNL     1      45.666  23.242 -22.746  1.00  0.00     0.210 HD
ENDBRANCH  11  12
ENDBRANCH   5  11
BRANCH   8  14
ATOM     14  C   UNL     1      43.844  17.524 -24.538  1.00  0.00     0.071 C 
ATOM     15  O   UNL     1      42.697  17.981 -24.273  1.00  0.00    -0.545 OA
ATOM     16  O   UNL     1      44.178  16.585 -25.316  1.00  0.00    -0.545 OA
ENDBRANCH   8  14
ENDBRANCH   1   2
BRANCH   1  17
ATOM     17  C   UNL     1      48.777  17.005 -21.992  1.00  0.00     0.286 C 
ATOM     18  C   UNL     1      48.650  15.512 -22.346  1.00  0.00     0.202 C 
ATOM     19  O   UNL     1      50.150  17.408 -21.990  1.00  0.00    -0.341 OA
ATOM     20  C   UNL     1      49.479  14.682 -21.373  1.00  0.00     0.179 C 
ATOM     21  C   UNL     1      50.931  16.686 -21.021  1.00  0.00     0.178 C 
ATOM     22  C   UNL     1      50.923  15.184 -21.329  1.00  0.00     0.177 C 
BRANCH  18  23
ATOM     23  O   UNL     1      47.293  15.050 -22.278  1.00  0.00    -0.385 OA
ATOM     24  H   UNL     1      47.330  14.072 -22.367  1.00  0.00     0.211 HD
ENDBRANCH  18  23
BRANCH  20  25
ATOM     25  O   UNL     1      49.476  13.297 -21.762  1.00  0.00    -0.387 OA
ATOM     26  H   UNL     1      49.045  12.837 -21.010  1.00  0.00     0.211 HD
ENDBRANCH  20  25
BRANCH  21  27
ATOM     27  C   UNL     1      52.353  17.254 -21.065  1.00  0.00     0.191 C 
BRANCH  27  28
ATOM     28  O   UNL     1      53.239  16.299 -21.654  1.00  0.00    -0.394 OA
ATOM     29  H   UNL     1      53.740  15.912 -20.908  1.00  0.00     0.210 HD
ENDBRANCH  27  28
ENDBRANCH  21  27
BRANCH  22  30
ATOM     30  O   UNL     1      51.648  14.442 -20.344  1.00  0.00    -0.387 OA
ATOM     31  H   UNL     1      52.591  14.576 -20.575  1.00  0.00     0.211 HD
ENDBRANCH  22  30
ENDBRANCH   1  17
TORSDOF 10
ENDMDL
MODEL 3
REMARK VINA RESULT:    -5.049      2.261      7.101
REMARK INTER + INTRA:          -8.314
REMARK INTER:                  -7.277
REMARK INTRA:                  -1.037
REMARK UNBOUND:                -1.052
REMARK SMILES O=C([O-])C1=CO[C@@H](O[C@@H]2O[C@H](CO)[C@@H](O)[C@H](O)[C@H]2O)[C@@H]2[C@@H](CO)CC[C@H]12
REMARK SMILES IDX 8 1 7 2 24 3 25 4 21 5 26 6 20 7 4 8 5 9 6 10 22 11 23 12
REMARK SMILES IDX 2 14 1 15 3 16 9 17 18 18 10 19 16 20 11 21 14 22 19 23
REMARK SMILES IDX 17 25 12 27 13 28 15 30
REMARK H PARENT 23 13 19 24 17 26 13 29 15 31
ROOT
ATOM      1  O   UNL     1      46.636  20.299 -23.183  1.00  0.00    -0.310 OA
ENDROOT
BRANCH   1   2
ATOM      2  C   UNL     1      45.291  19.924 -22.851  1.00  0.00     0.313 C 
ATOM      3  C   UNL     1      43.162  17.598 -24.968  1.00  0.00     0.007 C 
ATOM      4  C   UNL     1      44.471  16.820 -24.848  1.00  0.00     0.009 C 
ATOM      5  C   UNL     1      43.261  18.685 -23.902  1.00  0.00     0.024 C 
ATOM      6  C   UNL     1      45.478  17.745 -24.132  1.00  0.00     0.034 C 
ATOM      7  C   UNL     1      44.739  19.098 -24.015  1.00  0.00     0.071 C 
ATOM      8  C   UNL     1      45.881  17.225 -22.776  1.00  0.00     0.013 C 
ATOM      9  C   UNL     1      45.704  17.938 -21.657  1.00  0.00     0.196 C 
ATOM     10  O   UNL     1      45.221  19.221 -21.601  1.00  0.00    -0.472 OA
BRANCH   5  11
ATOM     11  C   UNL     1      42.269  19.815 -24.138  1.00  0.00     0.160 C 
BRANCH  11  12
ATOM     12  O   UNL     1      40.940  19.393 -23.862  1.00  0.00    -0.396 OA
ATOM     13  H   UNL     1      40.759  18.621 -24.428  1.00  0.00     0.210 HD
ENDBRANCH  11  12
ENDBRANCH   5  11
BRANCH   8  14
ATOM     14  C   UNL     1      46.527  15.828 -22.678  1.00  0.00     0.071 C 
ATOM     15  O   UNL     1      47.576  15.658 -23.360  1.00  0.00    -0.545 OA
ATOM     16  O   UNL     1      45.916  15.018 -21.923  1.00  0.00    -0.545 OA
ENDBRANCH   8  14
ENDBRANCH   1   2
BRANCH   1  17
ATOM     17  C   UNL     1      46.969  21.601 -22.715  1.00  0.00     0.286 C 
ATOM     18  C   UNL     1      47.845  21.393 -21.466  1.00  0.00     0.202 C 
ATOM     19  O   UNL     1      47.692  22.306 -23.728  1.00  0.00    -0.341 OA
ATOM     20  C   UNL     1      48.348  22.742 -20.963  1.00  0.00     0.179 C 
ATOM     21  C   UNL     1      48.107  23.614 -23.293  1.00  0.00     0.178 C 
ATOM     22  C   UNL     1      49.046  23.511 -22.085  1.00  0.00     0.177 C 
BRANCH  18  23
ATOM     23  O   UNL     1      47.128  20.760 -20.396  1.00  0.00    -0.385 OA
ATOM     24  H   UNL     1      47.804  20.465 -19.747  1.00  0.00     0.211 HD
ENDBRANCH  18  23
BRANCH  20  25
ATOM     25  O   UNL     1      49.269  22.561 -19.874  1.00  0.00    -0.387 OA
ATOM     26  H   UNL     1      48.693  22.405 -19.095  1.00  0.00     0.211 HD
ENDBRANCH  20  25
BRANCH  21  27
ATOM     27  C   UNL     1      48.801  24.291 -24.480  1.00  0.00     0.191 C 
BRANCH  27  28
ATOM     28  O   UNL     1      48.844  25.705 -24.273  1.00  0.00    -0.394 OA
ATOM     29  H   UNL     1      49.704  25.997 -24.636  1.00  0.00     0.210 HD
ENDBRANCH  27  28
ENDBRANCH  21  27
BRANCH  22  30
ATOM     30  O   UNL     1      49.424  24.803 -21.603  1.00  0.00    -0.387 OA
ATOM     31  H   UNL     1      49.905  24.627 -20.767  1.00  0.00     0.211 HD
ENDBRANCH  22  30
ENDBRANCH   1  17
TORSDOF 10
ENDMDL
MODEL 4
REMARK VINA RESULT:    -5.010      2.238      7.502
REMARK INTER + INTRA:          -8.259
REMARK INTER:                  -7.722
REMARK INTRA:                  -0.537
REMARK UNBOUND:                -1.052
REMARK SMILES O=C([O-])C1=CO[C@@H](O[C@@H]2O[C@H](CO)[C@@H](O)[C@H](O)[C@H]2O)[C@@H]2[C@@H](CO)CC[C@H]12
REMARK SMILES IDX 8 1 7 2 24 3 25 4 21 5 26 6 20 7 4 8 5 9 6 10 22 11 23 12
REMARK SMILES IDX 2 14 1 15 3 16 9 17 18 18 10 19 16 20 11 21 14 22 19 23
REMARK SMILES IDX 17 25 12 27 13 28 15 30
REMARK H PARENT 23 13 19 24 17 26 13 29 15 31
ROOT
ATOM      1  O   UNL     1      48.777  19.211 -23.042  1.00  0.00    -0.310 OA
ENDROOT
BRANCH   1   2
ATOM      2  C   UNL     1      47.760  18.735 -22.148  1.00  0.00     0.313 C 
ATOM      3  C   UNL     1      45.980  15.405 -22.553  1.00  0.00     0.007 C 
ATOM      4  C   UNL     1      47.448  15.007 -22.695  1.00  0.00     0.009 C 
ATOM      5  C   UNL     1      46.018  16.814 -21.969  1.00  0.00     0.024 C 
ATOM      6  C   UNL     1      48.268  16.315 -22.703  1.00  0.00     0.034 C 
ATOM      7  C   UNL     1      47.203  17.434 -22.730  1.00  0.00     0.071 C 
ATOM      8  C   UNL     1      49.166  16.445 -21.500  1.00  0.00     0.013 C 
ATOM      9  C   UNL     1      49.084  17.482 -20.657  1.00  0.00     0.196 C 
ATOM     10  O   UNL     1      48.257  18.566 -20.811  1.00  0.00    -0.472 OA
BRANCH   5  11
ATOM     11  C   UNL     1      44.696  17.548 -22.149  1.00  0.00     0.160 C 
BRANCH  11  12
ATOM     12  O   UNL     1      43.607  16.756 -21.692  1.00  0.00    -0.396 OA
ATOM     13  H   UNL     1      42.807  17.080 -22.143  1.00  0.00     0.210 HD
ENDBRANCH  11  12
ENDBRANCH   5  11
BRANCH   8  14
ATOM     14  C   UNL     1      50.219  15.349 -21.236  1.00  0.00     0.071 C 
ATOM     15  O   UNL     1      49.807  14.331 -20.612  1.00  0.00    -0.545 OA
ATOM     16  O   UNL     1      51.374  15.612 -21.677  1.00  0.00    -0.545 OA
ENDBRANCH   8  14
ENDBRANCH   1   2
BRANCH   1  17
ATOM     17  C   UNL     1      48.825  20.632 -23.103  1.00  0.00     0.286 C 
ATOM     18  C   UNL     1      47.362  21.110 -23.073  1.00  0.00     0.202 C 
ATOM     19  O   UNL     1      49.546  21.138 -21.976  1.00  0.00    -0.341 OA
ATOM     20  C   UNL     1      47.322  22.633 -23.017  1.00  0.00     0.179 C 
ATOM     21  C   UNL     1      49.582  22.577 -21.951  1.00  0.00     0.178 C 
ATOM     22  C   UNL     1      48.165  23.153 -21.852  1.00  0.00     0.177 C 
BRANCH  18  23
ATOM     23  O   UNL     1      46.627  20.689 -24.232  1.00  0.00    -0.385 OA
ATOM     24  H   UNL     1      46.424  19.737 -24.099  1.00  0.00     0.211 HD
ENDBRANCH  18  23
BRANCH  20  25
ATOM     25  O   UNL     1      45.969  23.095 -22.860  1.00  0.00    -0.387 OA
ATOM     26  H   UNL     1      45.430  22.276 -22.892  1.00  0.00     0.211 HD
ENDBRANCH  20  25
BRANCH  21  27
ATOM     27  C   UNL     1      50.436  22.991 -20.748  1.00  0.00     0.191 C 
BRANCH  27  28
ATOM     28  O   UNL     1      49.836  22.514 -19.541  1.00  0.00    -0.394 OA
ATOM     29  H   UNL     1      49.193  21.832 -19.821  1.00  0.00     0.210 HD
ENDBRANCH  27  28
ENDBRANCH  21  27
BRANCH  22  30
ATOM     30  O   UNL     1      48.176  24.583 -21.883  1.00  0.00    -0.387 OA
ATOM     31  H   UNL     1      48.901  24.813 -22.501  1.00  0.00     0.211 HD
ENDBRANCH  22  30
ENDBRANCH   1  17
TORSDOF 10
ENDMDL
MODEL 5
REMARK VINA RESULT:    -4.959      3.137      5.681
REMARK INTER + INTRA:          -8.185
REMARK INTER:                  -7.140
REMARK INTRA:                  -1.045
REMARK UNBOUND:                -1.052
REMARK SMILES O=C([O-])C1=CO[C@@H](O[C@@H]2O[C@H](CO)[C@@H](O)[C@H](O)[C@H]2O)[C@@H]2[C@@H](CO)CC[C@H]12
REMARK SMILES IDX 8 1 7 2 24 3 25 4 21 5 26 6 20 7 4 8 5 9 6 10 22 11 23 12
REMARK SMILES IDX 2 14 1 15 3 16 9 17 18 18 10 19 16 20 11 21 14 22 19 23
REMARK SMILES IDX 17 25 12 27 13 28 15 30
REMARK H PARENT 23 13 19 24 17 26 13 29 15 31
ROOT
ATOM      1  O   UNL     1      49.106  19.222 -22.106  1.00  0.00    -0.310 OA
ENDROOT
BRANCH   1   2
ATOM      2  C   UNL     1      48.217  18.385 -22.861  1.00  0.00     0.313 C 
ATOM      3  C   UNL     1      44.581  17.792 -21.939  1.00  0.00     0.007 C 
ATOM      4  C   UNL     1      44.690  19.314 -21.862  1.00  0.00     0.009 C 
ATOM      5  C   UNL     1      45.837  17.353 -22.684  1.00  0.00     0.024 C 
ATOM      6  C   UNL     1      46.179  19.666 -22.067  1.00  0.00     0.034 C 
ATOM      7  C   UNL     1      46.897  18.298 -22.091  1.00  0.00     0.071 C 
ATOM      8  C   UNL     1      46.424  20.434 -23.340  1.00  0.00     0.013 C 
ATOM      9  C   UNL     1      47.260  19.992 -24.290  1.00  0.00     0.196 C 
ATOM     10  O   UNL     1      48.036  18.865 -24.202  1.00  0.00    -0.472 OA
BRANCH   5  11
ATOM     11  C   UNL     1      46.133  15.872 -22.493  1.00  0.00     0.160 C 
BRANCH  11  12
ATOM     12  O   UNL     1      45.415  15.348 -21.382  1.00  0.00    -0.396 OA
ATOM     13  H   UNL     1      45.239  16.091 -20.778  1.00  0.00     0.210 HD
ENDBRANCH  11  12
ENDBRANCH   5  11
BRANCH   8  14
ATOM     14  C   UNL     1      45.693  21.775 -23.553  1.00  0.00     0.071 C 
ATOM     15  O   UNL     1      44.892  21.815 -24.528  1.00  0.00    -0.545 OA
ATOM     16  O   UNL     1      45.995  22.676 -22.720  1.00  0.00    -0.545 OA
ENDBRANCH   8  14
ENDBRANCH   1   2
BRANCH   1  17
ATOM     17  C   UNL     1      50.212  18.501 -21.574  1.00  0.00     0.286 C 
ATOM     18  C   UNL     1      50.399  19.009 -20.133  1.00  0.00     0.202 C 
ATOM     19  O   UNL     1      49.922  17.101 -21.583  1.00  0.00    -0.341 OA
ATOM     20  C   UNL     1      51.495  18.204 -19.445  1.00  0.00     0.179 C 
ATOM     21  C   UNL     1      50.983  16.319 -21.005  1.00  0.00     0.178 C 
ATOM     22  C   UNL     1      51.203  16.705 -19.538  1.00  0.00     0.177 C 
BRANCH  18  23
ATOM     23  O   UNL     1      50.772  20.394 -20.088  1.00  0.00    -0.385 OA
ATOM     24  H   UNL     1      50.280  20.788 -19.333  1.00  0.00     0.211 HD
ENDBRANCH  18  23
BRANCH  20  25
ATOM     25  O   UNL     1      51.599  18.576 -18.060  1.00  0.00    -0.387 OA
ATOM     26  H   UNL     1      50.755  18.268 -17.664  1.00  0.00     0.211 HD
ENDBRANCH  20  25
BRANCH  21  27
ATOM     27  C   UNL     1      50.588  14.844 -21.138  1.00  0.00     0.191 C 
BRANCH  27  28
ATOM     28  O   UNL     1      51.608  14.017 -20.570  1.00  0.00    -0.394 OA
ATOM     29  H   UNL     1      52.213  13.804 -21.308  1.00  0.00     0.210 HD
ENDBRANCH  27  28
ENDBRANCH  21  27
BRANCH  22  30
ATOM     30  O   UNL     1      52.292  15.979 -18.961  1.00  0.00    -0.387 OA
ATOM     31  H   UNL     1      53.096  16.397 -19.334  1.00  0.00     0.211 HD
ENDBRANCH  22  30
ENDBRANCH   1  17
TORSDOF 10
ENDMDL
MODEL 6
REMARK VINA RESULT:    -4.937      2.307      3.221
REMARK INTER + INTRA:          -8.153
REMARK INTER:                  -7.435
REMARK INTRA:                  -0.719
REMARK UNBOUND:                -1.052
REMARK SMILES O=C([O-])C1=CO[C@@H](O[C@@H]2O[C@H](CO)[C@@H](O)[C@H](O)[C@H]2O)[C@@H]2[C@@H](CO)CC[C@H]12
REMARK SMILES IDX 8 1 7 2 24 3 25 4 21 5 26 6 20 7 4 8 5 9 6 10 22 11 23 12
REMARK SMILES IDX 2 14 1 15 3 16 9 17 18 18 10 19 16 20 11 21 14 22 19 23
REMARK SMILES IDX 17 25 12 27 13 28 15 30
REMARK H PARENT 23 13 19 24 17 26 13 29 15 31
ROOT
ATOM      1  O   UNL     1      45.055  18.674 -25.797  1.00  0.00    -0.310 OA
ENDROOT
BRANCH   1   2
ATOM      2  C   UNL     1      44.805  20.068 -26.028  1.00  0.00     0.313 C 
ATOM      3  C   UNL     1      47.203  22.838 -25.030  1.00  0.00     0.007 C 
ATOM      4  C   UNL     1      48.124  21.859 -25.753  1.00  0.00     0.009 C 
ATOM      5  C   UNL     1      45.794  22.390 -25.403  1.00  0.00     0.024 C 
ATOM      6  C   UNL     1      47.282  20.605 -26.073  1.00  0.00     0.034 C 
ATOM      7  C   UNL     1      45.933  20.858 -25.362  1.00  0.00     0.071 C 
ATOM      8  C   UNL     1      47.087  20.397 -27.552  1.00  0.00     0.013 C 
ATOM      9  C   UNL     1      45.872  20.333 -28.110  1.00  0.00     0.196 C 
ATOM     10  O   UNL     1      44.682  20.367 -27.427  1.00  0.00    -0.472 OA
BRANCH   5  11
ATOM     11  C   UNL     1      44.740  22.955 -24.461  1.00  0.00     0.160 C 
BRANCH  11  12
ATOM     12  O   UNL     1      45.095  22.725 -23.103  1.00  0.00    -0.396 OA
ATOM     13  H   UNL     1      44.323  22.965 -22.559  1.00  0.00     0.210 HD
ENDBRANCH  11  12
ENDBRANCH   5  11
BRANCH   8  14
ATOM     14  C   UNL     1      48.331  20.247 -28.452  1.00  0.00     0.071 C 
ATOM     15  O   UNL     1      48.978  19.170 -28.318  1.00  0.00    -0.545 OA
ATOM     16  O   UNL     1      48.552  21.231 -29.213  1.00  0.00    -0.545 OA
ENDBRANCH   8  14
ENDBRANCH   1   2
BRANCH   1  17
ATOM     17  C   UNL     1      45.490  18.413 -24.467  1.00  0.00     0.286 C 
ATOM     18  C   UNL     1      44.286  17.786 -23.740  1.00  0.00     0.202 C 
ATOM     19  O   UNL     1      46.594  17.504 -24.491  1.00  0.00    -0.341 OA
ATOM     20  C   UNL     1      44.699  17.364 -22.335  1.00  0.00     0.179 C 
ATOM     21  C   UNL     1      47.046  17.156 -23.170  1.00  0.00     0.178 C 
ATOM     22  C   UNL     1      45.930  16.459 -22.382  1.00  0.00     0.177 C 
BRANCH  18  23
ATOM     23  O   UNL     1      43.184  18.699 -23.624  1.00  0.00    -0.385 OA
ATOM     24  H   UNL     1      42.975  18.757 -22.665  1.00  0.00     0.211 HD
ENDBRANCH  18  23
BRANCH  20  25
ATOM     25  O   UNL     1      43.626  16.663 -21.684  1.00  0.00    -0.387 OA
ATOM     26  H   UNL     1      42.871  16.746 -22.306  1.00  0.00     0.211 HD
ENDBRANCH  20  25
BRANCH  21  27
ATOM     27  C   UNL     1      48.267  16.244 -23.329  1.00  0.00     0.191 C 
BRANCH  27  28
ATOM     28  O   UNL     1      47.965  14.939 -22.829  1.00  0.00    -0.394 OA
ATOM     29  H   UNL     1      47.011  14.807 -23.002  1.00  0.00     0.210 HD
ENDBRANCH  27  28
ENDBRANCH  21  27
BRANCH  22  30
ATOM     30  O   UNL     1      46.341  16.156 -21.046  1.00  0.00    -0.387 OA
ATOM     31  H   UNL     1      45.960  15.272 -20.862  1.00  0.00     0.211 HD
ENDBRANCH  22  30
ENDBRANCH   1  17
TORSDOF 10
ENDMDL
MODEL 7
REMARK VINA RESULT:    -4.918      2.584      4.413
REMARK INTER + INTRA:          -8.126
REMARK INTER:                  -7.135
REMARK INTRA:                  -0.991
REMARK UNBOUND:                -1.052
REMARK SMILES O=C([O-])C1=CO[C@@H](O[C@@H]2O[C@H](CO)[C@@H](O)[C@H](O)[C@H]2O)[C@@H]2[C@@H](CO)CC[C@H]12
REMARK SMILES IDX 8 1 7 2 24 3 25 4 21 5 26 6 20 7 4 8 5 9 6 10 22 11 23 12
REMARK SMILES IDX 2 14 1 15 3 16 9 17 18 18 10 19 16 20 11 21 14 22 19 23
REMARK SMILES IDX 17 25 12 27 13 28 15 30
REMARK H PARENT 23 13 19 24 17 26 13 29 15 31
ROOT
ATOM      1  O   UNL     1      47.307  19.087 -25.087  1.00  0.00    -0.310 OA
ENDROOT
BRANCH   1   2
ATOM      2  C   UNL     1      46.090  18.494 -25.564  1.00  0.00     0.313 C 
ATOM      3  C   UNL     1      42.646  19.371 -24.224  1.00  0.00     0.007 C 
ATOM      4  C   UNL     1      43.251  20.748 -24.487  1.00  0.00     0.009 C 
ATOM      5  C   UNL     1      43.562  18.400 -24.963  1.00  0.00     0.024 C 
ATOM      6  C   UNL     1      44.724  20.520 -24.892  1.00  0.00     0.034 C 
ATOM      7  C   UNL     1      44.948  19.005 -24.682  1.00  0.00     0.071 C 
ATOM      8  C   UNL     1      45.003  20.921 -26.317  1.00  0.00     0.013 C 
ATOM      9  C   UNL     1      45.494  20.060 -27.217  1.00  0.00     0.196 C 
ATOM     10  O   UNL     1      45.868  18.766 -26.956  1.00  0.00    -0.472 OA
BRANCH   5  11
ATOM     11  C   UNL     1      43.389  16.966 -24.484  1.00  0.00     0.160 C 
BRANCH  11  12
ATOM     12  O   UNL     1      43.221  16.917 -23.072  1.00  0.00    -0.396 OA
ATOM     13  H   UNL     1      42.271  17.040 -22.891  1.00  0.00     0.210 HD
ENDBRANCH  11  12
ENDBRANCH   5  11
BRANCH   8  14
ATOM     14  C   UNL     1      44.721  22.374 -26.749  1.00  0.00     0.071 C 
ATOM     15  O   UNL     1      45.218  23.273 -26.014  1.00  0.00    -0.545 OA
ATOM     16  O   UNL     1      44.016  22.486 -27.793  1.00  0.00    -0.545 OA
ENDBRANCH   8  14
ENDBRANCH   1   2
BRANCH   1  17
ATOM     17  C   UNL     1      47.902  18.335 -24.036  1.00  0.00     0.286 C 
ATOM     18  C   UNL     1      47.862  19.239 -22.790  1.00  0.00     0.202 C 
ATOM     19  O   UNL     1      47.152  17.138 -23.816  1.00  0.00    -0.341 OA
ATOM     20  C   UNL     1      48.377  18.467 -21.580  1.00  0.00     0.179 C 
ATOM     21  C   UNL     1      47.674  16.358 -22.724  1.00  0.00     0.178 C 
ATOM     22  C   UNL     1      47.614  17.153 -21.414  1.00  0.00     0.177 C 
BRANCH  18  23
ATOM     23  O   UNL     1      48.671  20.415 -22.943  1.00  0.00    -0.385 OA
ATOM     24  H   UNL     1      49.426  20.157 -23.518  1.00  0.00     0.211 HD
ENDBRANCH  18  23
BRANCH  20  25
ATOM     25  O   UNL     1      48.229  19.250 -20.383  1.00  0.00    -0.387 OA
ATOM     26  H   UNL     1      49.137  19.572 -20.193  1.00  0.00     0.211 HD
ENDBRANCH  20  25
BRANCH  21  27
ATOM     27  C   UNL     1      46.838  15.077 -22.636  1.00  0.00     0.191 C 
BRANCH  27  28
ATOM     28  O   UNL     1      45.826  15.227 -21.637  1.00  0.00    -0.394 OA
ATOM     29  H   UNL     1      45.052  14.731 -21.972  1.00  0.00     0.210 HD
ENDBRANCH  27  28
ENDBRANCH  21  27
BRANCH  22  30
ATOM     30  O   UNL     1      48.180  16.416 -20.327  1.00  0.00    -0.387 OA
ATOM     31  H   UNL     1      48.033  15.475 -20.559  1.00  0.00     0.211 HD
ENDBRANCH  22  30
ENDBRANCH   1  17
TORSDOF 10
ENDMDL
MODEL 8
REMARK VINA RESULT:    -4.878      1.673      2.504
REMARK INTER + INTRA:          -8.069
REMARK INTER:                  -7.255
REMARK INTRA:                  -0.814
REMARK UNBOUND:                -1.052
REMARK SMILES O=C([O-])C1=CO[C@@H](O[C@@H]2O[C@H](CO)[C@@H](O)[C@H](O)[C@H]2O)[C@@H]2[C@@H](CO)CC[C@H]12
REMARK SMILES IDX 8 1 7 2 24 3 25 4 21 5 26 6 20 7 4 8 5 9 6 10 22 11 23 12
REMARK SMILES IDX 2 14 1 15 3 16 9 17 18 18 10 19 16 20 11 21 14 22 19 23
REMARK SMILES IDX 17 25 12 27 13 28 15 30
REMARK H PARENT 23 13 19 24 17 26 13 29 15 31
ROOT
ATOM      1  O   UNL     1      45.908  20.714 -22.430  1.00  0.00    -0.310 OA
ENDROOT
BRANCH   1   2
ATOM      2  C   UNL     1      47.076  20.964 -23.226  1.00  0.00     0.313 C 
ATOM      3  C   UNL     1      47.265  20.315 -26.963  1.00  0.00     0.007 C 
ATOM      4  C   UNL     1      45.961  21.100 -26.837  1.00  0.00     0.009 C 
ATOM      5  C   UNL     1      47.971  20.523 -25.627  1.00  0.00     0.024 C 
ATOM      6  C   UNL     1      45.696  21.287 -25.327  1.00  0.00     0.034 C 
ATOM      7  C   UNL     1      46.795  20.446 -24.638  1.00  0.00     0.071 C 
ATOM      8  C   UNL     1      45.766  22.730 -24.900  1.00  0.00     0.013 C 
ATOM      9  C   UNL     1      46.614  23.154 -23.954  1.00  0.00     0.196 C 
ATOM     10  O   UNL     1      47.447  22.351 -23.218  1.00  0.00    -0.472 OA
BRANCH   5  11
ATOM     11  C   UNL     1      49.067  19.492 -25.388  1.00  0.00     0.160 C 
BRANCH  11  12
ATOM     12  O   UNL     1      49.577  18.996 -26.619  1.00  0.00    -0.396 OA
ATOM     13  H   UNL     1      50.346  19.546 -26.854  1.00  0.00     0.210 HD
ENDBRANCH  11  12
ENDBRANCH   5  11
BRANCH   8  14
ATOM     14  C   UNL     1      44.825  23.751 -25.571  1.00  0.00     0.071 C 
ATOM     15  O   UNL     1      43.622  23.723 -25.187  1.00  0.00    -0.545 OA
ATOM     16  O   UNL     1      45.378  24.491 -26.433  1.00  0.00    -0.545 OA
ENDBRANCH   8  14
ENDBRANCH   1   2
BRANCH   1  17
ATOM     17  C   UNL     1      45.900  19.406 -21.871  1.00  0.00     0.286 C 
ATOM     18  C   UNL     1      44.540  18.790 -22.247  1.00  0.00     0.202 C 
ATOM     19  O   UNL     1      46.972  18.639 -22.426  1.00  0.00    -0.341 OA
ATOM     20  C   UNL     1      44.490  17.338 -21.787  1.00  0.00     0.179 C 
ATOM     21  C   UNL     1      46.984  17.284 -21.940  1.00  0.00     0.178 C 
ATOM     22  C   UNL     1      45.690  16.559 -22.326  1.00  0.00     0.177 C 
BRANCH  18  23
ATOM     23  O   UNL     1      43.440  19.486 -21.641  1.00  0.00    -0.385 OA
ATOM     24  H   UNL     1      42.646  18.926 -21.786  1.00  0.00     0.211 HD
ENDBRANCH  18  23
BRANCH  20  25
ATOM     25  O   UNL     1      43.279  16.707 -22.239  1.00  0.00    -0.387 OA
ATOM     26  H   UNL     1      43.585  15.875 -22.660  1.00  0.00     0.211 HD
ENDBRANCH  20  25
BRANCH  21  27
ATOM     27  C   UNL     1      48.211  16.593 -22.545  1.00  0.00     0.191 C 
BRANCH  27  28
ATOM     28  O   UNL     1      48.338  15.275 -22.006  1.00  0.00    -0.394 OA
ATOM     29  H   UNL     1      48.072  14.670 -22.727  1.00  0.00     0.210 HD
ENDBRANCH  27  28
ENDBRANCH  21  27
BRANCH  22  30
ATOM     30  O   UNL     1      45.658  15.228 -21.803  1.00  0.00    -0.387 OA
ATOM     31  H   UNL     1      44.709  15.047 -21.637  1.00  0.00     0.211 HD
ENDBRANCH  22  30
ENDBRANCH   1  17
TORSDOF 10
ENDMDL
MODEL 9
REMARK VINA RESULT:    -4.802      3.376      4.743
REMARK INTER + INTRA:          -7.960
REMARK INTER:                  -6.504
REMARK INTRA:                  -1.456
REMARK UNBOUND:                -1.052
REMARK SMILES O=C([O-])C1=CO[C@@H](O[C@@H]2O[C@H](CO)[C@@H](O)[C@H](O)[C@H]2O)[C@@H]2[C@@H](CO)CC[C@H]12
REMARK SMILES IDX 8 1 7 2 24 3 25 4 21 5 26 6 20 7 4 8 5 9 6 10 22 11 23 12
REMARK SMILES IDX 2 14 1 15 3 16 9 17 18 18 10 19 16 20 11 21 14 22 19 23
REMARK SMILES IDX 17 25 12 27 13 28 15 30
REMARK H PARENT 23 13 19 24 17 26 13 29 15 31
ROOT
ATOM      1  O   UNL     1      48.892  19.072 -20.585  1.00  0.00    -0.310 OA
ENDROOT
BRANCH   1   2
ATOM      2  C   UNL     1      49.812  20.021 -21.144  1.00  0.00     0.313 C 
ATOM      3  C   UNL     1      50.180  20.668 -24.868  1.00  0.00     0.007 C 
ATOM      4  C   UNL     1      48.667  20.745 -24.674  1.00  0.00     0.009 C 
ATOM      5  C   UNL     1      50.753  20.746 -23.457  1.00  0.00     0.024 C 
ATOM      6  C   UNL     1      48.382  20.340 -23.212  1.00  0.00     0.034 C 
ATOM      7  C   UNL     1      49.754  19.883 -22.667  1.00  0.00     0.071 C 
ATOM      8  C   UNL     1      47.820  21.473 -22.393  1.00  0.00     0.013 C 
ATOM      9  C   UNL     1      48.417  21.912 -21.278  1.00  0.00     0.196 C 
ATOM     10  O   UNL     1      49.536  21.360 -20.707  1.00  0.00    -0.472 OA
BRANCH   5  11
ATOM     11  C   UNL     1      52.195  20.261 -23.394  1.00  0.00     0.160 C 
BRANCH  11  12
ATOM     12  O   UNL     1      52.258  18.899 -22.989  1.00  0.00    -0.396 OA
ATOM     13  H   UNL     1      51.423  18.479 -23.262  1.00  0.00     0.210 HD
ENDBRANCH  11  12
ENDBRANCH   5  11
BRANCH   8  14
ATOM     14  C   UNL     1      46.510  22.144 -22.854  1.00  0.00     0.071 C 
ATOM     15  O   UNL     1      46.601  23.362 -23.175  1.00  0.00    -0.545 OA
ATOM     16  O   UNL     1      45.499  21.386 -22.846  1.00  0.00    -0.545 OA
ENDBRANCH   8  14
ENDBRANCH   1   2
BRANCH   1  17
ATOM     17  C   UNL     1      49.525  17.852 -20.217  1.00  0.00     0.286 C 
ATOM     18  C   UNL     1      48.899  16.762 -21.106  1.00  0.00     0.202 C 
ATOM     19  O   UNL     1      50.932  17.950 -20.453  1.00  0.00    -0.341 OA
ATOM     20  C   UNL     1      49.605  15.433 -20.860  1.00  0.00     0.179 C 
ATOM     21  C   UNL     1      51.624  16.725 -20.150  1.00  0.00     0.178 C 
ATOM     22  C   UNL     1      51.116  15.583 -21.038  1.00  0.00     0.177 C 
BRANCH  18  23
ATOM     23  O   UNL     1      47.501  16.577 -20.840  1.00  0.00    -0.385 OA
ATOM     24  H   UNL     1      47.445  15.951 -20.084  1.00  0.00     0.211 HD
ENDBRANCH  18  23
BRANCH  20  25
ATOM     25  O   UNL     1      49.122  14.430 -21.770  1.00  0.00    -0.387 OA
ATOM     26  H   UNL     1      49.938  14.028 -22.139  1.00  0.00     0.211 HD
ENDBRANCH  20  25
BRANCH  21  27
ATOM     27  C   UNL     1      53.119  16.978 -20.371  1.00  0.00     0.191 C 
BRANCH  27  28
ATOM     28  O   UNL     1      53.496  16.540 -21.679  1.00  0.00    -0.394 OA
ATOM     29  H   UNL     1      54.225  15.902 -21.542  1.00  0.00     0.210 HD
ENDBRANCH  27  28
ENDBRANCH  21  27
BRANCH  22  30
ATOM     30  O   UNL     1      51.752  14.343 -20.714  1.00  0.00    -0.387 OA
ATOM     31  H   UNL     1      52.711  14.524 -20.802  1.00  0.00     0.211 HD
ENDBRANCH  22  30
ENDBRANCH   1  17
TORSDOF 10
ENDMDL
