MODEL 1
REMARK VINA RESULT:    -5.307      0.000      0.000
REMARK INTER + INTRA:          -6.221
REMARK INTER:                  -6.083
REMARK INTRA:                  -0.137
REMARK UNBOUND:                -0.137
REMARK SMILES O=C([O-])/C=C/c1ccc(O)cc1
REMARK SMILES IDX 7 1 8 2 9 3 11 4 12 5 6 6 5 7 4 8 2 9 1 10 3 11 10 12
REMARK H PARENT 10 13
ROOT
ATOM      1  C   UNL     1      45.258  19.441 -24.851  1.00  0.00     0.012 A 
ATOM      2  C   UNL     1      45.488  18.087 -24.597  1.00  0.00     0.047 A 
ATOM      3  C   UNL     1      44.415  17.244 -24.334  1.00  0.00     0.115 A 
ATOM      4  C   UNL     1      43.114  17.735 -24.316  1.00  0.00     0.047 A 
ATOM      5  C   UNL     1      42.889  19.091 -24.570  1.00  0.00     0.012 A 
ATOM      6  C   UNL     1      43.955  19.957 -24.853  1.00  0.00    -0.025 A 
ENDROOT
BRANCH   6   7
ATOM      7  C   UNL     1      43.665  21.378 -25.084  1.00  0.00     0.010 C 
ATOM      8  C   UNL     1      44.570  22.368 -25.037  1.00  0.00     0.025 C 
BRANCH   8   9
ATOM      9  C   UNL     1      44.199  23.829 -25.300  1.00  0.00     0.064 C 
ATOM     10  O   UNL     1      43.363  24.296 -24.476  1.00  0.00    -0.545 OA
ATOM     11  O   UNL     1      44.758  24.384 -26.286  1.00  0.00    -0.545 OA
ENDBRANCH   8   9
ENDBRANCH   6   7
BRANCH   3  12
ATOM     12  O   UNL     1      44.679  15.928 -24.091  1.00  0.00    -0.508 OA
ATOM     13  H   UNL     1      45.342  15.883 -23.383  1.00  0.00     0.293 HD
ENDBRANCH   3  12
TORSDOF 3
ENDMDL
MODEL 2
REMARK VINA RESULT:    -5.210      0.981      1.337
REMARK INTER + INTRA:          -6.109
REMARK INTER:                  -5.966
REMARK INTRA:                  -0.143
REMARK UNBOUND:                -0.137
REMARK SMILES O=C([O-])/C=C/c1ccc(O)cc1
REMARK SMILES IDX 7 1 8 2 9 3 11 4 12 5 6 6 5 7 4 8 2 9 1 10 3 11 10 12
REMARK H PARENT 10 13
ROOT
ATOM      1  C   UNL     1      44.972  19.169 -26.059  1.00  0.00     0.012 A 
ATOM      2  C   UNL     1      44.758  17.865 -25.605  1.00  0.00     0.047 A 
ATOM      3  C   UNL     1      43.786  17.623 -24.643  1.00  0.00     0.115 A 
ATOM      4  C   UNL     1      43.026  18.666 -24.122  1.00  0.00     0.047 A 
ATOM      5  C   UNL     1      43.245  19.969 -24.579  1.00  0.00     0.012 A 
ATOM      6  C   UNL     1      44.210  20.234 -25.561  1.00  0.00    -0.025 A 
ENDROOT
BRANCH   6   7
ATOM      7  C   UNL     1      44.419  21.625 -25.985  1.00  0.00     0.010 C 
ATOM      8  C   UNL     1      44.575  22.669 -25.156  1.00  0.00     0.025 C 
BRANCH   8   9
ATOM      9  C   UNL     1      44.801  24.093 -25.668  1.00  0.00     0.064 C 
ATOM     10  O   UNL     1      45.827  24.213 -26.397  1.00  0.00    -0.545 OA
ATOM     11  O   UNL     1      43.958  24.961 -25.312  1.00  0.00    -0.545 OA
ENDBRANCH   8   9
ENDBRANCH   6   7
BRANCH   3  12
ATOM     12  O   UNL     1      43.605  16.338 -24.224  1.00  0.00    -0.508 OA
ATOM     13  H   UNL     1      43.367  16.361 -23.283  1.00  0.00     0.293 HD
ENDBRANCH   3  12
TORSDOF 3
ENDMDL
MODEL 3
REMARK VINA RESULT:    -5.152      1.699      1.854
REMARK INTER + INTRA:          -6.042
REMARK INTER:                  -5.903
REMARK INTRA:                  -0.139
REMARK UNBOUND:                -0.137
REMARK SMILES O=C([O-])/C=C/c1ccc(O)cc1
REMARK SMILES IDX 7 1 8 2 9 3 11 4 12 5 6 6 5 7 4 8 2 9 1 10 3 11 10 12
REMARK H PARENT 10 13
ROOT
ATOM      1  C   UNL     1      45.140  17.973 -24.566  1.00  0.00     0.012 A 
ATOM      2  C   UNL     1      45.546  16.930 -23.729  1.00  0.00     0.047 A 
ATOM      3  C   UNL     1      45.223  16.966 -22.378  1.00  0.00     0.115 A 
ATOM      4  C   UNL     1      44.502  18.032 -21.848  1.00  0.00     0.047 A 
ATOM      5  C   UNL     1      44.099  19.073 -22.690  1.00  0.00     0.012 A 
ATOM      6  C   UNL     1      44.401  19.050 -24.059  1.00  0.00    -0.025 A 
ENDROOT
BRANCH   6   7
ATOM      7  C   UNL     1      43.979  20.183 -24.892  1.00  0.00     0.010 C 
ATOM      8  C   UNL     1      44.425  21.443 -24.766  1.00  0.00     0.025 C 
BRANCH   8   9
ATOM      9  C   UNL     1      43.949  22.575 -25.679  1.00  0.00     0.064 C 
ATOM     10  O   UNL     1      43.625  23.626 -25.056  1.00  0.00    -0.545 OA
ATOM     11  O   UNL     1      43.936  22.333 -26.917  1.00  0.00    -0.545 OA
ENDBRANCH   8   9
ENDBRANCH   6   7
BRANCH   3  12
ATOM     12  O   UNL     1      45.636  15.931 -21.593  1.00  0.00    -0.508 OA
ATOM     13  H   UNL     1      46.607  15.942 -21.571  1.00  0.00     0.293 HD
ENDBRANCH   3  12
TORSDOF 3
ENDMDL
MODEL 4
REMARK VINA RESULT:    -5.129      3.497      6.394
REMARK INTER + INTRA:          -6.016
REMARK INTER:                  -5.870
REMARK INTRA:                  -0.145
REMARK UNBOUND:                -0.137
REMARK SMILES O=C([O-])/C=C/c1ccc(O)cc1
REMARK SMILES IDX 7 1 8 2 9 3 11 4 12 5 6 6 5 7 4 8 2 9 1 10 3 11 10 12
REMARK H PARENT 10 13
ROOT
ATOM      1  C   UNL     1      44.582  16.688 -24.483  1.00  0.00     0.012 A 
ATOM      2  C   UNL     1      43.494  17.504 -24.803  1.00  0.00     0.047 A 
ATOM      3  C   UNL     1      43.223  18.624 -24.028  1.00  0.00     0.115 A 
ATOM      4  C   UNL     1      44.020  18.941 -22.932  1.00  0.00     0.047 A 
ATOM      5  C   UNL     1      45.107  18.120 -22.616  1.00  0.00     0.012 A 
ATOM      6  C   UNL     1      45.408  16.993 -23.393  1.00  0.00    -0.025 A 
ENDROOT
BRANCH   6   7
ATOM      7  C   UNL     1      46.545  16.150 -22.999  1.00  0.00     0.010 C 
ATOM      8  C   UNL     1      47.765  16.602 -22.671  1.00  0.00     0.025 C 
BRANCH   8   9
ATOM      9  C   UNL     1      48.901  15.665 -22.257  1.00  0.00     0.064 C 
ATOM     10  O   UNL     1      48.578  14.443 -22.263  1.00  0.00    -0.545 OA
ATOM     11  O   UNL     1      50.002  16.207 -21.966  1.00  0.00    -0.545 OA
ENDBRANCH   8   9
ENDBRANCH   6   7
BRANCH   3  12
ATOM     12  O   UNL     1      42.152  19.397 -24.371  1.00  0.00    -0.508 OA
ATOM     13  H   UNL     1      42.429  19.985 -25.092  1.00  0.00     0.293 HD
ENDBRANCH   3  12
TORSDOF 3
ENDMDL
MODEL 5
REMARK VINA RESULT:    -5.118      3.468      6.382
REMARK INTER + INTRA:          -6.004
REMARK INTER:                  -5.863
REMARK INTRA:                  -0.141
REMARK UNBOUND:                -0.137
REMARK SMILES O=C([O-])/C=C/c1ccc(O)cc1
REMARK SMILES IDX 7 1 8 2 9 3 11 4 12 5 6 6 5 7 4 8 2 9 1 10 3 11 10 12
REMARK H PARENT 10 13
ROOT
ATOM      1  C   UNL     1      45.088  18.187 -22.579  1.00  0.00     0.012 A 
ATOM      2  C   UNL     1      44.014  18.998 -22.955  1.00  0.00     0.047 A 
ATOM      3  C   UNL     1      43.226  18.636 -24.041  1.00  0.00     0.115 A 
ATOM      4  C   UNL     1      43.497  17.478 -24.761  1.00  0.00     0.047 A 
ATOM      5  C   UNL     1      44.574  16.670 -24.381  1.00  0.00     0.012 A 
ATOM      6  C   UNL     1      45.373  17.007 -23.280  1.00  0.00    -0.025 A 
ENDROOT
BRANCH   6   7
ATOM      7  C   UNL     1      46.508  16.139 -22.942  1.00  0.00     0.010 C 
ATOM      8  C   UNL     1      47.739  16.568 -22.619  1.00  0.00     0.025 C 
BRANCH   8   9
ATOM      9  C   UNL     1      48.874  15.604 -22.266  1.00  0.00     0.064 C 
ATOM     10  O   UNL     1      48.523  14.390 -22.253  1.00  0.00    -0.545 OA
ATOM     11  O   UNL     1      50.001  16.122 -22.035  1.00  0.00    -0.545 OA
ENDBRANCH   8   9
ENDBRANCH   6   7
BRANCH   3  12
ATOM     12  O   UNL     1      42.187  19.453 -24.378  1.00  0.00    -0.508 OA
ATOM     13  H   UNL     1      41.432  19.224 -23.811  1.00  0.00     0.293 HD
ENDBRANCH   3  12
TORSDOF 3
ENDMDL
MODEL 6
REMARK VINA RESULT:    -5.039      2.434      2.921
REMARK INTER + INTRA:          -5.913
REMARK INTER:                  -5.774
REMARK INTRA:                  -0.139
REMARK UNBOUND:                -0.137
REMARK SMILES O=C([O-])/C=C/c1ccc(O)cc1
REMARK SMILES IDX 7 1 8 2 9 3 11 4 12 5 6 6 5 7 4 8 2 9 1 10 3 11 10 12
REMARK H PARENT 10 13
ROOT
ATOM      1  C   UNL     1      45.296  17.535 -24.640  1.00  0.00     0.012 A 
ATOM      2  C   UNL     1      45.528  16.668 -23.568  1.00  0.00     0.047 A 
ATOM      3  C   UNL     1      45.176  17.057 -22.281  1.00  0.00     0.115 A 
ATOM      4  C   UNL     1      44.599  18.301 -22.047  1.00  0.00     0.047 A 
ATOM      5  C   UNL     1      44.370  19.164 -23.123  1.00  0.00     0.012 A 
ATOM      6  C   UNL     1      44.703  18.786 -24.432  1.00  0.00    -0.025 A 
ENDROOT
BRANCH   6   7
ATOM      7  C   UNL     1      44.467  19.743 -25.522  1.00  0.00     0.010 C 
ATOM      8  C   UNL     1      45.118  19.751 -26.696  1.00  0.00     0.025 C 
BRANCH   8   9
ATOM      9  C   UNL     1      44.811  20.772 -27.793  1.00  0.00     0.064 C 
ATOM     10  O   UNL     1      44.529  21.922 -27.351  1.00  0.00    -0.545 OA
ATOM     11  O   UNL     1      44.876  20.358 -28.983  1.00  0.00    -0.545 OA
ENDBRANCH   8   9
ENDBRANCH   6   7
BRANCH   3  12
ATOM     12  O   UNL     1      45.418  16.185 -21.261  1.00  0.00    -0.508 OA
ATOM     13  H   UNL     1      46.145  15.602 -21.532  1.00  0.00     0.293 HD
ENDBRANCH   3  12
TORSDOF 3
ENDMDL
MODEL 7
REMARK VINA RESULT:    -4.896      2.450      2.950
REMARK INTER + INTRA:          -5.749
REMARK INTER:                  -5.615
REMARK INTRA:                  -0.134
REMARK UNBOUND:                -0.137
REMARK SMILES O=C([O-])/C=C/c1ccc(O)cc1
REMARK SMILES IDX 7 1 8 2 9 3 11 4 12 5 6 6 5 7 4 8 2 9 1 10 3 11 10 12
REMARK H PARENT 10 13
ROOT
ATOM      1  C   UNL     1      47.244  18.056 -23.429  1.00  0.00     0.012 A 
ATOM      2  C   UNL     1      47.245  16.665 -23.296  1.00  0.00     0.047 A 
ATOM      3  C   UNL     1      46.262  16.046 -22.533  1.00  0.00     0.115 A 
ATOM      4  C   UNL     1      45.280  16.797 -21.896  1.00  0.00     0.047 A 
ATOM      5  C   UNL     1      45.284  18.189 -22.032  1.00  0.00     0.012 A 
ATOM      6  C   UNL     1      46.257  18.833 -22.810  1.00  0.00    -0.025 A 
ENDROOT
BRANCH   6   7
ATOM      7  C   UNL     1      46.233  20.299 -22.895  1.00  0.00     0.010 C 
ATOM      8  C   UNL     1      45.566  21.007 -23.820  1.00  0.00     0.025 C 
BRANCH   8   9
ATOM      9  C   UNL     1      45.575  22.537 -23.842  1.00  0.00     0.064 C 
ATOM     10  O   UNL     1      46.368  23.051 -23.003  1.00  0.00    -0.545 OA
ATOM     11  O   UNL     1      44.809  23.094 -24.675  1.00  0.00    -0.545 OA
ENDBRANCH   8   9
ENDBRANCH   6   7
BRANCH   3  12
ATOM     12  O   UNL     1      46.295  14.687 -22.426  1.00  0.00    -0.508 OA
ATOM     13  H   UNL     1      47.194  14.430 -22.165  1.00  0.00     0.293 HD
ENDBRANCH   3  12
TORSDOF 3
ENDMDL
MODEL 8
REMARK VINA RESULT:    -4.768      3.316      3.815
REMARK INTER + INTRA:          -5.602
REMARK INTER:                  -5.470
REMARK INTRA:                  -0.132
REMARK UNBOUND:                -0.137
REMARK SMILES O=C([O-])/C=C/c1ccc(O)cc1
REMARK SMILES IDX 7 1 8 2 9 3 11 4 12 5 6 6 5 7 4 8 2 9 1 10 3 11 10 12
REMARK H PARENT 10 13
ROOT
ATOM      1  C   UNL     1      45.223  18.754 -21.981  1.00  0.00     0.012 A 
ATOM      2  C   UNL     1      45.107  17.367 -21.851  1.00  0.00     0.047 A 
ATOM      3  C   UNL     1      46.050  16.539 -22.448  1.00  0.00     0.115 A 
ATOM      4  C   UNL     1      47.106  17.076 -23.178  1.00  0.00     0.047 A 
ATOM      5  C   UNL     1      47.216  18.464 -23.305  1.00  0.00     0.012 A 
ATOM      6  C   UNL     1      46.285  19.318 -22.698  1.00  0.00    -0.025 A 
ENDROOT
BRANCH   6   7
ATOM      7  C   UNL     1      46.432  20.768 -22.888  1.00  0.00     0.010 C 
ATOM      8  C   UNL     1      47.364  21.533 -22.299  1.00  0.00     0.025 C 
BRANCH   8   9
ATOM      9  C   UNL     1      47.466  23.038 -22.552  1.00  0.00     0.064 C 
ATOM     10  O   UNL     1      47.562  23.341 -23.776  1.00  0.00    -0.545 OA
ATOM     11  O   UNL     1      47.442  23.785 -21.535  1.00  0.00    -0.545 OA
ENDBRANCH   8   9
ENDBRANCH   6   7
BRANCH   3  12
ATOM     12  O   UNL     1      45.904  15.191 -22.300  1.00  0.00    -0.508 OA
ATOM     13  H   UNL     1      45.344  14.870 -23.025  1.00  0.00     0.293 HD
ENDBRANCH   3  12
TORSDOF 3
ENDMDL
MODEL 9
REMARK VINA RESULT:    -4.649      4.820      6.869
REMARK INTER + INTRA:          -5.466
REMARK INTER:                  -5.334
REMARK INTRA:                  -0.132
REMARK UNBOUND:                -0.137
REMARK SMILES O=C([O-])/C=C/c1ccc(O)cc1
REMARK SMILES IDX 7 1 8 2 9 3 11 4 12 5 6 6 5 7 4 8 2 9 1 10 3 11 10 12
REMARK H PARENT 10 13
ROOT
ATOM      1  C   UNL     1      49.047  15.532 -22.316  1.00  0.00     0.012 A 
ATOM      2  C   UNL     1      50.081  15.093 -21.485  1.00  0.00     0.047 A 
ATOM      3  C   UNL     1      50.537  15.915 -20.462  1.00  0.00     0.115 A 
ATOM      4  C   UNL     1      49.979  17.173 -20.259  1.00  0.00     0.047 A 
ATOM      5  C   UNL     1      48.945  17.608 -21.093  1.00  0.00     0.012 A 
ATOM      6  C   UNL     1      48.459  16.788 -22.122  1.00  0.00    -0.025 A 
ENDROOT
BRANCH   6   7
ATOM      7  C   UNL     1      47.390  17.306 -22.988  1.00  0.00     0.010 C 
ATOM      8  C   UNL     1      46.276  16.637 -23.322  1.00  0.00     0.025 C 
BRANCH   8   9
ATOM      9  C   UNL     1      45.197  17.244 -24.221  1.00  0.00     0.064 C 
ATOM     10  O   UNL     1      44.038  17.211 -23.717  1.00  0.00    -0.545 OA
ATOM     11  O   UNL     1      45.579  17.697 -25.335  1.00  0.00    -0.545 OA
ENDBRANCH   8   9
ENDBRANCH   6   7
BRANCH   3  12
ATOM     12  O   UNL     1      51.548  15.453 -19.672  1.00  0.00    -0.508 OA
ATOM     13  H   UNL     1      52.345  15.970 -19.874  1.00  0.00     0.293 HD
ENDBRANCH   3  12
TORSDOF 3
ENDMDL
