MODEL 1
REMARK VINA RESULT:    -5.743      0.000      0.000
REMARK INTER + INTRA:          -6.880
REMARK INTER:                  -6.751
REMARK INTRA:                  -0.129
REMARK UNBOUND:                -0.129
REMARK SMILES O=C([O-])/C=C/c1ccc(O)c(O)c1
REMARK SMILES IDX 7 1 8 2 9 3 11 4 13 5 6 6 5 7 4 8 2 9 1 10 3 11 10 12 12 14
REMARK H PARENT 10 13 12 15
ROOT
ATOM      1  C   UNL     1      44.475  19.131 -25.795  1.00  0.00     0.012 A 
ATOM      2  C   UNL     1      44.783  17.781 -25.602  1.00  0.00     0.051 A 
ATOM      3  C   UNL     1      44.539  17.205 -24.362  1.00  0.00     0.157 A 
ATOM      4  C   UNL     1      44.001  17.965 -23.327  1.00  0.00     0.157 A 
ATOM      5  C   UNL     1      43.692  19.308 -23.513  1.00  0.00     0.058 A 
ATOM      6  C   UNL     1      43.918  19.905 -24.761  1.00  0.00    -0.022 A 
ENDROOT
BRANCH   6   7
ATOM      7  C   UNL     1      43.646  21.324 -25.024  1.00  0.00     0.010 C 
ATOM      8  C   UNL     1      44.569  22.299 -25.044  1.00  0.00     0.025 C 
BRANCH   8   9
ATOM      9  C   UNL     1      44.202  23.761 -25.302  1.00  0.00     0.064 C 
ATOM     10  O   UNL     1      44.761  24.317 -26.289  1.00  0.00    -0.545 OA
ATOM     11  O   UNL     1      43.367  24.230 -24.477  1.00  0.00    -0.545 OA
ENDBRANCH   8   9
ENDBRANCH   6   7
BRANCH   3  12
ATOM     12  O   UNL     1      44.818  15.888 -24.111  1.00  0.00    -0.504 OA
ATOM     13  H   UNL     1      44.030  15.499 -23.696  1.00  0.00     0.293 HD
ENDBRANCH   3  12
BRANCH   4  14
ATOM     14  O   UNL     1      43.777  17.385 -22.109  1.00  0.00    -0.504 OA
ATOM     15  H   UNL     1      43.096  16.710 -22.289  1.00  0.00     0.293 HD
ENDBRANCH   4  14
TORSDOF 4
ENDMDL
MODEL 2
REMARK VINA RESULT:    -5.735      3.662      6.496
REMARK INTER + INTRA:          -6.870
REMARK INTER:                  -6.721
REMARK INTRA:                  -0.149
REMARK UNBOUND:                -0.129
REMARK SMILES O=C([O-])/C=C/c1ccc(O)c(O)c1
REMARK SMILES IDX 7 1 8 2 9 3 11 4 13 5 6 6 5 7 4 8 2 9 1 10 3 11 10 12 12 14
REMARK H PARENT 10 13 12 15
ROOT
ATOM      1  C   UNL     1      45.686  16.433 -23.815  1.00  0.00     0.012 A 
ATOM      2  C   UNL     1      44.471  16.782 -24.414  1.00  0.00     0.051 A 
ATOM      3  C   UNL     1      43.698  17.780 -23.836  1.00  0.00     0.157 A 
ATOM      4  C   UNL     1      44.126  18.418 -22.674  1.00  0.00     0.157 A 
ATOM      5  C   UNL     1      45.333  18.075 -22.075  1.00  0.00     0.058 A 
ATOM      6  C   UNL     1      46.135  17.080 -22.650  1.00  0.00    -0.022 A 
ENDROOT
BRANCH   6   7
ATOM      7  C   UNL     1      47.407  16.644 -22.058  1.00  0.00     0.010 C 
ATOM      8  C   UNL     1      48.187  15.662 -22.537  1.00  0.00     0.025 C 
BRANCH   8   9
ATOM      9  C   UNL     1      49.489  15.248 -21.848  1.00  0.00     0.064 C 
ATOM     10  O   UNL     1      49.585  14.037 -21.505  1.00  0.00    -0.545 OA
ATOM     11  O   UNL     1      50.315  16.195 -21.713  1.00  0.00    -0.545 OA
ENDBRANCH   8   9
ENDBRANCH   6   7
BRANCH   3  12
ATOM     12  O   UNL     1      42.500  18.166 -24.374  1.00  0.00    -0.504 OA
ATOM     13  H   UNL     1      42.247  19.002 -23.947  1.00  0.00     0.293 HD
ENDBRANCH   3  12
BRANCH   4  14
ATOM     14  O   UNL     1      43.347  19.391 -22.112  1.00  0.00    -0.504 OA
ATOM     15  H   UNL     1      42.483  18.957 -21.980  1.00  0.00     0.293 HD
ENDBRANCH   4  14
TORSDOF 4
ENDMDL
MODEL 3
REMARK VINA RESULT:    -5.576      1.709      2.126
REMARK INTER + INTRA:          -6.684
REMARK INTER:                  -6.565
REMARK INTRA:                  -0.119
REMARK UNBOUND:                -0.129
REMARK SMILES O=C([O-])/C=C/c1ccc(O)c(O)c1
REMARK SMILES IDX 7 1 8 2 9 3 11 4 13 5 6 6 5 7 4 8 2 9 1 10 3 11 10 12 12 14
REMARK H PARENT 10 13 12 15
ROOT
ATOM      1  C   UNL     1      46.396  18.533 -23.964  1.00  0.00     0.012 A 
ATOM      2  C   UNL     1      46.690  17.298 -23.378  1.00  0.00     0.051 A 
ATOM      3  C   UNL     1      45.777  16.738 -22.494  1.00  0.00     0.157 A 
ATOM      4  C   UNL     1      44.590  17.402 -22.193  1.00  0.00     0.157 A 
ATOM      5  C   UNL     1      44.293  18.630 -22.774  1.00  0.00     0.058 A 
ATOM      6  C   UNL     1      45.194  19.206 -23.679  1.00  0.00    -0.022 A 
ENDROOT
BRANCH   6   7
ATOM      7  C   UNL     1      44.963  20.513 -24.308  1.00  0.00     0.010 C 
ATOM      8  C   UNL     1      43.831  20.885 -24.928  1.00  0.00     0.025 C 
BRANCH   8   9
ATOM      9  C   UNL     1      43.676  22.259 -25.582  1.00  0.00     0.064 C 
ATOM     10  O   UNL     1      43.279  23.197 -24.835  1.00  0.00    -0.545 OA
ATOM     11  O   UNL     1      43.976  22.275 -26.809  1.00  0.00    -0.545 OA
ENDBRANCH   8   9
ENDBRANCH   6   7
BRANCH   3  12
ATOM     12  O   UNL     1      46.007  15.532 -21.888  1.00  0.00    -0.504 OA
ATOM     13  H   UNL     1      46.967  15.450 -21.760  1.00  0.00     0.293 HD
ENDBRANCH   3  12
BRANCH   4  14
ATOM     14  O   UNL     1      43.707  16.842 -21.312  1.00  0.00    -0.504 OA
ATOM     15  H   UNL     1      42.831  17.058 -21.683  1.00  0.00     0.293 HD
ENDBRANCH   4  14
TORSDOF 4
ENDMDL
MODEL 4
REMARK VINA RESULT:    -5.555      3.190      3.531
REMARK INTER + INTRA:          -6.659
REMARK INTER:                  -6.515
REMARK INTRA:                  -0.143
REMARK UNBOUND:                -0.129
REMARK SMILES O=C([O-])/C=C/c1ccc(O)c(O)c1
REMARK SMILES IDX 7 1 8 2 9 3 11 4 13 5 6 6 5 7 4 8 2 9 1 10 3 11 10 12 12 14
REMARK H PARENT 10 13 12 15
ROOT
ATOM      1  C   UNL     1      47.270  18.526 -22.693  1.00  0.00     0.012 A 
ATOM      2  C   UNL     1      47.184  17.144 -22.492  1.00  0.00     0.051 A 
ATOM      3  C   UNL     1      45.969  16.596 -22.104  1.00  0.00     0.157 A 
ATOM      4  C   UNL     1      44.856  17.412 -21.915  1.00  0.00     0.157 A 
ATOM      5  C   UNL     1      44.936  18.785 -22.114  1.00  0.00     0.058 A 
ATOM      6  C   UNL     1      46.150  19.358 -22.519  1.00  0.00    -0.022 A 
ENDROOT
BRANCH   6   7
ATOM      7  C   UNL     1      46.319  20.803 -22.720  1.00  0.00     0.010 C 
ATOM      8  C   UNL     1      47.370  21.525 -22.299  1.00  0.00     0.025 C 
BRANCH   8   9
ATOM      9  C   UNL     1      47.462  23.036 -22.527  1.00  0.00     0.064 C 
ATOM     10  O   UNL     1      47.440  23.763 -21.495  1.00  0.00    -0.545 OA
ATOM     11  O   UNL     1      47.552  23.362 -23.744  1.00  0.00    -0.545 OA
ENDBRANCH   8   9
ENDBRANCH   6   7
BRANCH   3  12
ATOM     12  O   UNL     1      45.820  15.251 -21.891  1.00  0.00    -0.504 OA
ATOM     13  H   UNL     1      46.476  14.989 -21.224  1.00  0.00     0.293 HD
ENDBRANCH   3  12
BRANCH   4  14
ATOM     14  O   UNL     1      43.670  16.856 -21.522  1.00  0.00    -0.504 OA
ATOM     15  H   UNL     1      43.805  16.650 -20.578  1.00  0.00     0.293 HD
ENDBRANCH   4  14
TORSDOF 4
ENDMDL
MODEL 5
REMARK VINA RESULT:    -5.496      3.655      6.663
REMARK INTER + INTRA:          -6.589
REMARK INTER:                  -6.467
REMARK INTRA:                  -0.122
REMARK UNBOUND:                -0.129
REMARK SMILES O=C([O-])/C=C/c1ccc(O)c(O)c1
REMARK SMILES IDX 7 1 8 2 9 3 11 4 13 5 6 6 5 7 4 8 2 9 1 10 3 11 10 12 12 14
REMARK H PARENT 10 13 12 15
ROOT
ATOM      1  C   UNL     1      46.341  19.012 -22.083  1.00  0.00     0.012 A 
ATOM      2  C   UNL     1      45.166  19.675 -22.453  1.00  0.00     0.051 A 
ATOM      3  C   UNL     1      44.115  18.936 -22.980  1.00  0.00     0.157 A 
ATOM      4  C   UNL     1      44.233  17.558 -23.141  1.00  0.00     0.157 A 
ATOM      5  C   UNL     1      45.399  16.895 -22.774  1.00  0.00     0.058 A 
ATOM      6  C   UNL     1      46.467  17.619 -22.228  1.00  0.00    -0.022 A 
ENDROOT
BRANCH   6   7
ATOM      7  C   UNL     1      47.739  16.992 -21.845  1.00  0.00     0.010 C 
ATOM      8  C   UNL     1      48.221  15.846 -22.352  1.00  0.00     0.025 C 
BRANCH   8   9
ATOM      9  C   UNL     1      49.547  15.243 -21.883  1.00  0.00     0.064 C 
ATOM     10  O   UNL     1      50.500  16.051 -21.701  1.00  0.00    -0.545 OA
ATOM     11  O   UNL     1      49.511  13.989 -21.734  1.00  0.00    -0.545 OA
ENDBRANCH   8   9
ENDBRANCH   6   7
BRANCH   3  12
ATOM     12  O   UNL     1      42.939  19.526 -23.361  1.00  0.00    -0.504 OA
ATOM     13  H   UNL     1      42.581  19.986 -22.583  1.00  0.00     0.293 HD
ENDBRANCH   3  12
BRANCH   4  14
ATOM     14  O   UNL     1      43.192  16.848 -23.672  1.00  0.00    -0.504 OA
ATOM     15  H   UNL     1      42.748  17.485 -24.263  1.00  0.00     0.293 HD
ENDBRANCH   4  14
TORSDOF 4
ENDMDL
MODEL 6
REMARK VINA RESULT:    -5.396      5.119      6.835
REMARK INTER + INTRA:          -6.472
REMARK INTER:                  -6.348
REMARK INTRA:                  -0.124
REMARK UNBOUND:                -0.129
REMARK SMILES O=C([O-])/C=C/c1ccc(O)c(O)c1
REMARK SMILES IDX 7 1 8 2 9 3 11 4 13 5 6 6 5 7 4 8 2 9 1 10 3 11 10 12 12 14
REMARK H PARENT 10 13 12 15
ROOT
ATOM      1  C   UNL     1      49.346  17.470 -21.820  1.00  0.00     0.012 A 
ATOM      2  C   UNL     1      50.352  17.034 -20.951  1.00  0.00     0.051 A 
ATOM      3  C   UNL     1      50.577  15.671 -20.812  1.00  0.00     0.157 A 
ATOM      4  C   UNL     1      49.808  14.754 -21.524  1.00  0.00     0.157 A 
ATOM      5  C   UNL     1      48.807  15.182 -22.390  1.00  0.00     0.058 A 
ATOM      6  C   UNL     1      48.573  16.553 -22.555  1.00  0.00    -0.022 A 
ENDROOT
BRANCH   6   7
ATOM      7  C   UNL     1      47.515  17.079 -23.428  1.00  0.00     0.010 C 
ATOM      8  C   UNL     1      46.239  16.663 -23.435  1.00  0.00     0.025 C 
BRANCH   8   9
ATOM      9  C   UNL     1      45.198  17.245 -24.393  1.00  0.00     0.064 C 
ATOM     10  O   UNL     1      45.643  17.838 -25.416  1.00  0.00    -0.545 OA
ATOM     11  O   UNL     1      44.004  17.049 -24.029  1.00  0.00    -0.545 OA
ENDBRANCH   8   9
ENDBRANCH   6   7
BRANCH   3  12
ATOM     12  O   UNL     1      51.546  15.182 -19.977  1.00  0.00    -0.504 OA
ATOM     13  H   UNL     1      51.610  15.789 -19.221  1.00  0.00     0.293 HD
ENDBRANCH   3  12
BRANCH   4  14
ATOM     14  O   UNL     1      50.036  13.415 -21.366  1.00  0.00    -0.504 OA
ATOM     15  H   UNL     1      49.684  13.016 -22.184  1.00  0.00     0.293 HD
ENDBRANCH   4  14
TORSDOF 4
ENDMDL
MODEL 7
REMARK VINA RESULT:    -5.381      2.686      3.073
REMARK INTER + INTRA:          -6.454
REMARK INTER:                  -6.308
REMARK INTRA:                  -0.146
REMARK UNBOUND:                -0.129
REMARK SMILES O=C([O-])/C=C/c1ccc(O)c(O)c1
REMARK SMILES IDX 7 1 8 2 9 3 11 4 13 5 6 6 5 7 4 8 2 9 1 10 3 11 10 12 12 14
REMARK H PARENT 10 13 12 15
ROOT
ATOM      1  C   UNL     1      44.931  17.656 -25.030  1.00  0.00     0.012 A 
ATOM      2  C   UNL     1      44.840  16.860 -23.884  1.00  0.00     0.051 A 
ATOM      3  C   UNL     1      44.385  17.432 -22.703  1.00  0.00     0.157 A 
ATOM      4  C   UNL     1      44.030  18.778 -22.663  1.00  0.00     0.157 A 
ATOM      5  C   UNL     1      44.118  19.573 -23.800  1.00  0.00     0.058 A 
ATOM      6  C   UNL     1      44.563  19.013 -25.005  1.00  0.00    -0.022 A 
ENDROOT
BRANCH   6   7
ATOM      7  C   UNL     1      44.711  19.797 -26.239  1.00  0.00     0.010 C 
ATOM      8  C   UNL     1      45.662  19.607 -27.167  1.00  0.00     0.025 C 
BRANCH   8   9
ATOM      9  C   UNL     1      45.765  20.483 -28.417  1.00  0.00     0.064 C 
ATOM     10  O   UNL     1      46.818  21.169 -28.540  1.00  0.00    -0.545 OA
ATOM     11  O   UNL     1      44.761  20.400 -29.180  1.00  0.00    -0.545 OA
ENDBRANCH   8   9
ENDBRANCH   6   7
BRANCH   3  12
ATOM     12  O   UNL     1      44.272  16.706 -21.547  1.00  0.00    -0.504 OA
ATOM     13  H   UNL     1      43.498  16.126 -21.643  1.00  0.00     0.293 HD
ENDBRANCH   3  12
BRANCH   4  14
ATOM     14  O   UNL     1      43.594  19.327 -21.488  1.00  0.00    -0.504 OA
ATOM     15  H   UNL     1      44.415  19.519 -20.997  1.00  0.00     0.293 HD
ENDBRANCH   4  14
TORSDOF 4
ENDMDL
MODEL 8
REMARK VINA RESULT:    -5.309      2.836      5.993
REMARK INTER + INTRA:          -6.370
REMARK INTER:                  -6.246
REMARK INTRA:                  -0.124
REMARK UNBOUND:                -0.129
REMARK SMILES O=C([O-])/C=C/c1ccc(O)c(O)c1
REMARK SMILES IDX 7 1 8 2 9 3 11 4 13 5 6 6 5 7 4 8 2 9 1 10 3 11 10 12 12 14
REMARK H PARENT 10 13 12 15
ROOT
ATOM      1  C   UNL     1      43.934  17.375 -24.260  1.00  0.00     0.012 A 
ATOM      2  C   UNL     1      42.940  18.331 -24.495  1.00  0.00     0.051 A 
ATOM      3  C   UNL     1      43.236  19.673 -24.294  1.00  0.00     0.157 A 
ATOM      4  C   UNL     1      44.503  20.057 -23.860  1.00  0.00     0.157 A 
ATOM      5  C   UNL     1      45.494  19.111 -23.626  1.00  0.00     0.058 A 
ATOM      6  C   UNL     1      45.220  17.753 -23.835  1.00  0.00    -0.022 A 
ENDROOT
BRANCH   6   7
ATOM      7  C   UNL     1      46.207  16.695 -23.580  1.00  0.00     0.010 C 
ATOM      8  C   UNL     1      47.297  16.822 -22.808  1.00  0.00     0.025 C 
BRANCH   8   9
ATOM      9  C   UNL     1      48.293  15.678 -22.611  1.00  0.00     0.064 C 
ATOM     10  O   UNL     1      49.515  15.994 -22.568  1.00  0.00    -0.545 OA
ATOM     11  O   UNL     1      47.749  14.541 -22.511  1.00  0.00    -0.545 OA
ENDBRANCH   8   9
ENDBRANCH   6   7
BRANCH   3  12
ATOM     12  O   UNL     1      42.307  20.656 -24.507  1.00  0.00    -0.504 OA
ATOM     13  H   UNL     1      41.870  20.463 -25.353  1.00  0.00     0.293 HD
ENDBRANCH   3  12
BRANCH   4  14
ATOM     14  O   UNL     1      44.773  21.382 -23.657  1.00  0.00    -0.504 OA
ATOM     15  H   UNL     1      44.559  21.802 -24.511  1.00  0.00     0.293 HD
ENDBRANCH   4  14
TORSDOF 4
ENDMDL
MODEL 9
REMARK VINA RESULT:    -5.290      3.085      3.366
REMARK INTER + INTRA:          -6.347
REMARK INTER:                  -6.224
REMARK INTRA:                  -0.123
REMARK UNBOUND:                -0.129
REMARK SMILES O=C([O-])/C=C/c1ccc(O)c(O)c1
REMARK SMILES IDX 7 1 8 2 9 3 11 4 13 5 6 6 5 7 4 8 2 9 1 10 3 11 10 12 12 14
REMARK H PARENT 10 13 12 15
ROOT
ATOM      1  C   UNL     1      48.201  18.236 -23.547  1.00  0.00     0.012 A 
ATOM      2  C   UNL     1      48.450  16.864 -23.440  1.00  0.00     0.051 A 
ATOM      3  C   UNL     1      47.544  16.067 -22.754  1.00  0.00     0.157 A 
ATOM      4  C   UNL     1      46.407  16.628 -22.177  1.00  0.00     0.157 A 
ATOM      5  C   UNL     1      46.155  17.992 -22.281  1.00  0.00     0.058 A 
ATOM      6  C   UNL     1      47.049  18.812 -22.981  1.00  0.00    -0.022 A 
ENDROOT
BRANCH   6   7
ATOM      7  C   UNL     1      46.865  20.264 -23.107  1.00  0.00     0.010 C 
ATOM      8  C   UNL     1      45.783  20.864 -23.627  1.00  0.00     0.025 C 
BRANCH   8   9
ATOM      9  C   UNL     1      45.675  22.386 -23.746  1.00  0.00     0.064 C 
ATOM     10  O   UNL     1      44.882  22.828 -24.623  1.00  0.00    -0.545 OA
ATOM     11  O   UNL     1      46.410  23.013 -22.931  1.00  0.00    -0.545 OA
ENDBRANCH   8   9
ENDBRANCH   6   7
BRANCH   3  12
ATOM     12  O   UNL     1      47.732  14.717 -22.614  1.00  0.00    -0.504 OA
ATOM     13  H   UNL     1      48.690  14.557 -22.612  1.00  0.00     0.293 HD
ENDBRANCH   3  12
BRANCH   4  14
ATOM     14  O   UNL     1      45.531  15.830 -21.495  1.00  0.00    -0.504 OA
ATOM     15  H   UNL     1      45.673  16.067 -20.559  1.00  0.00     0.293 HD
ENDBRANCH   4  14
TORSDOF 4
ENDMDL
