MODEL 1
REMARK VINA RESULT:    -4.639      0.000      0.000
REMARK INTER + INTRA:          -5.596
REMARK INTER:                  -5.453
REMARK INTRA:                  -0.143
REMARK UNBOUND:                -0.143
REMARK SMILES O=C([O-])/C=C/c1ccc(O)c(O)c1
REMARK SMILES IDX 7 1 8 2 9 3 11 4 13 5 6 6 5 7 4 8 2 9 1 10 3 11 10 12 12 14
REMARK H PARENT 10 13 12 15
ROOT
ATOM      1  C   UNL     1      44.661  16.662 -24.305  1.00  0.00     0.012 A 
ATOM      2  C   UNL     1      43.556  17.439 -24.668  1.00  0.00     0.051 A 
ATOM      3  C   UNL     1      43.121  18.435 -23.805  1.00  0.00     0.157 A 
ATOM      4  C   UNL     1      43.774  18.653 -22.594  1.00  0.00     0.157 A 
ATOM      5  C   UNL     1      44.873  17.884 -22.229  1.00  0.00     0.058 A 
ATOM      6  C   UNL     1      45.337  16.882 -23.092  1.00  0.00    -0.022 A 
ENDROOT
BRANCH   6   7
ATOM      7  C   UNL     1      46.472  16.011 -22.761  1.00  0.00     0.010 C 
ATOM      8  C   UNL     1      47.738  16.422 -22.585  1.00  0.00     0.025 C 
BRANCH   8   9
ATOM      9  C   UNL     1      48.873  15.447 -22.265  1.00  0.00     0.064 C 
ATOM     10  O   UNL     1      50.027  15.945 -22.145  1.00  0.00    -0.545 OA
ATOM     11  O   UNL     1      48.496  14.245 -22.157  1.00  0.00    -0.545 OA
ENDBRANCH   8   9
ENDBRANCH   6   7
BRANCH   3  12
ATOM     12  O   UNL     1      42.046  19.229 -24.103  1.00  0.00    -0.504 OA
ATOM     13  H   UNL     1      41.502  19.294 -23.300  1.00  0.00     0.293 HD
ENDBRANCH   3  12
BRANCH   4  14
ATOM     14  O   UNL     1      43.325  19.631 -21.751  1.00  0.00    -0.504 OA
ATOM     15  H   UNL     1      43.631  19.345 -20.870  1.00  0.00     0.293 HD
ENDBRANCH   4  14
TORSDOF 4
ENDMDL
MODEL 2
REMARK VINA RESULT:    -4.545      3.545      5.252
REMARK INTER + INTRA:          -5.485
REMARK INTER:                  -5.330
REMARK INTRA:                  -0.155
REMARK UNBOUND:                -0.143
REMARK SMILES O=C([O-])/C=C/c1ccc(O)c(O)c1
REMARK SMILES IDX 7 1 8 2 9 3 11 4 13 5 6 6 5 7 4 8 2 9 1 10 3 11 10 12 12 14
REMARK H PARENT 10 13 12 15
ROOT
ATOM      1  C   UNL     1      47.464  18.344 -22.071  1.00  0.00     0.012 A 
ATOM      2  C   UNL     1      47.273  16.958 -22.067  1.00  0.00     0.051 A 
ATOM      3  C   UNL     1      45.979  16.458 -22.007  1.00  0.00     0.157 A 
ATOM      4  C   UNL     1      44.891  17.325 -21.946  1.00  0.00     0.157 A 
ATOM      5  C   UNL     1      45.076  18.703 -21.950  1.00  0.00     0.058 A 
ATOM      6  C   UNL     1      46.372  19.229 -22.024  1.00  0.00    -0.022 A 
ENDROOT
BRANCH   6   7
ATOM      7  C   UNL     1      46.648  20.672 -22.003  1.00  0.00     0.010 C 
ATOM      8  C   UNL     1      47.578  21.271 -21.243  1.00  0.00     0.025 C 
BRANCH   8   9
ATOM      9  C   UNL     1      47.788  22.787 -21.259  1.00  0.00     0.064 C 
ATOM     10  O   UNL     1      46.965  23.462 -21.937  1.00  0.00    -0.545 OA
ATOM     11  O   UNL     1      48.778  23.170 -20.573  1.00  0.00    -0.545 OA
ENDBRANCH   8   9
ENDBRANCH   6   7
BRANCH   3  12
ATOM     12  O   UNL     1      45.726  15.112 -22.000  1.00  0.00    -0.504 OA
ATOM     13  H   UNL     1      45.489  14.858 -22.907  1.00  0.00     0.293 HD
ENDBRANCH   3  12
BRANCH   4  14
ATOM     14  O   UNL     1      43.624  16.815 -21.876  1.00  0.00    -0.504 OA
ATOM     15  H   UNL     1      43.058  17.600 -21.753  1.00  0.00     0.293 HD
ENDBRANCH   4  14
TORSDOF 4
ENDMDL
MODEL 3
REMARK VINA RESULT:    -4.505     12.238     13.547
REMARK INTER + INTRA:          -5.438
REMARK INTER:                  -5.283
REMARK INTRA:                  -0.155
REMARK UNBOUND:                -0.143
REMARK SMILES O=C([O-])/C=C/c1ccc(O)c(O)c1
REMARK SMILES IDX 7 1 8 2 9 3 11 4 13 5 6 6 5 7 4 8 2 9 1 10 3 11 10 12 12 14
REMARK H PARENT 10 13 12 15
ROOT
ATOM      1  C   UNL     1      51.993  28.564 -19.034  1.00  0.00     0.012 A 
ATOM      2  C   UNL     1      52.493  29.085 -17.837  1.00  0.00     0.051 A 
ATOM      3  C   UNL     1      53.170  28.241 -16.966  1.00  0.00     0.157 A 
ATOM      4  C   UNL     1      53.342  26.896 -17.282  1.00  0.00     0.157 A 
ATOM      5  C   UNL     1      52.848  26.373 -18.471  1.00  0.00     0.058 A 
ATOM      6  C   UNL     1      52.174  27.210 -19.370  1.00  0.00    -0.022 A 
ENDROOT
BRANCH   6   7
ATOM      7  C   UNL     1      51.598  26.724 -20.631  1.00  0.00     0.010 C 
ATOM      8  C   UNL     1      50.658  27.359 -21.348  1.00  0.00     0.025 C 
BRANCH   8   9
ATOM      9  C   UNL     1      50.090  26.774 -22.643  1.00  0.00     0.064 C 
ATOM     10  O   UNL     1      50.929  26.418 -23.516  1.00  0.00    -0.545 OA
ATOM     11  O   UNL     1      48.827  26.720 -22.666  1.00  0.00    -0.545 OA
ENDBRANCH   8   9
ENDBRANCH   6   7
BRANCH   3  12
ATOM     12  O   UNL     1      53.682  28.691 -15.779  1.00  0.00    -0.504 OA
ATOM     13  H   UNL     1      53.068  28.419 -15.076  1.00  0.00     0.293 HD
ENDBRANCH   3  12
BRANCH   4  14
ATOM     14  O   UNL     1      54.002  26.077 -16.407  1.00  0.00    -0.504 OA
ATOM     15  H   UNL     1      53.313  25.461 -16.094  1.00  0.00     0.293 HD
ENDBRANCH   4  14
TORSDOF 4
ENDMDL
MODEL 4
REMARK VINA RESULT:    -4.282      3.513      6.096
REMARK INTER + INTRA:          -5.176
REMARK INTER:                  -5.021
REMARK INTRA:                  -0.155
REMARK UNBOUND:                -0.143
REMARK SMILES O=C([O-])/C=C/c1ccc(O)c(O)c1
REMARK SMILES IDX 7 1 8 2 9 3 11 4 13 5 6 6 5 7 4 8 2 9 1 10 3 11 10 12 12 14
REMARK H PARENT 10 13 12 15
ROOT
ATOM      1  C   UNL     1      44.542  19.081 -25.670  1.00  0.00     0.012 A 
ATOM      2  C   UNL     1      44.801  17.715 -25.513  1.00  0.00     0.051 A 
ATOM      3  C   UNL     1      44.435  17.093 -24.327  1.00  0.00     0.157 A 
ATOM      4  C   UNL     1      43.825  17.822 -23.308  1.00  0.00     0.157 A 
ATOM      5  C   UNL     1      43.565  19.179 -23.459  1.00  0.00     0.058 A 
ATOM      6  C   UNL     1      43.913  19.823 -24.654  1.00  0.00    -0.022 A 
ENDROOT
BRANCH   6   7
ATOM      7  C   UNL     1      43.697  21.259 -24.874  1.00  0.00     0.010 C 
ATOM      8  C   UNL     1      44.649  22.142 -25.219  1.00  0.00     0.025 C 
BRANCH   8   9
ATOM      9  C   UNL     1      44.349  23.630 -25.407  1.00  0.00     0.064 C 
ATOM     10  O   UNL     1      45.092  24.257 -26.212  1.00  0.00    -0.545 OA
ATOM     11  O   UNL     1      43.373  24.043 -24.719  1.00  0.00    -0.545 OA
ENDBRANCH   8   9
ENDBRANCH   6   7
BRANCH   3  12
ATOM     12  O   UNL     1      44.661  15.760 -24.112  1.00  0.00    -0.504 OA
ATOM     13  H   UNL     1      44.509  15.588 -23.168  1.00  0.00     0.293 HD
ENDBRANCH   3  12
BRANCH   4  14
ATOM     14  O   UNL     1      43.482  17.195 -22.142  1.00  0.00    -0.504 OA
ATOM     15  H   UNL     1      42.577  16.867 -22.306  1.00  0.00     0.293 HD
ENDBRANCH   4  14
TORSDOF 4
ENDMDL
MODEL 5
REMARK VINA RESULT:    -4.165      1.731      2.482
REMARK INTER + INTRA:          -5.039
REMARK INTER:                  -4.896
REMARK INTRA:                  -0.143
REMARK UNBOUND:                -0.143
REMARK SMILES O=C([O-])/C=C/c1ccc(O)c(O)c1
REMARK SMILES IDX 7 1 8 2 9 3 11 4 13 5 6 6 5 7 4 8 2 9 1 10 3 11 10 12 12 14
REMARK H PARENT 10 13 12 15
ROOT
ATOM      1  C   UNL     1      47.254  18.436 -22.018  1.00  0.00     0.012 A 
ATOM      2  C   UNL     1      46.175  19.326 -22.009  1.00  0.00     0.051 A 
ATOM      3  C   UNL     1      44.883  18.818 -22.064  1.00  0.00     0.157 A 
ATOM      4  C   UNL     1      44.669  17.444 -22.132  1.00  0.00     0.157 A 
ATOM      5  C   UNL     1      45.739  16.555 -22.141  1.00  0.00     0.058 A 
ATOM      6  C   UNL     1      47.049  17.046 -22.073  1.00  0.00    -0.022 A 
ENDROOT
BRANCH   6   7
ATOM      7  C   UNL     1      48.229  16.171 -22.108  1.00  0.00     0.010 C 
ATOM      8  C   UNL     1      49.093  15.996 -21.096  1.00  0.00     0.025 C 
BRANCH   8   9
ATOM      9  C   UNL     1      50.315  15.083 -21.219  1.00  0.00     0.064 C 
ATOM     10  O   UNL     1      51.396  15.632 -21.570  1.00  0.00    -0.545 OA
ATOM     11  O   UNL     1      50.076  13.873 -20.943  1.00  0.00    -0.545 OA
ENDBRANCH   8   9
ENDBRANCH   6   7
BRANCH   3  12
ATOM     12  O   UNL     1      43.786  19.637 -22.058  1.00  0.00    -0.504 OA
ATOM     13  H   UNL     1      43.238  19.393 -22.823  1.00  0.00     0.293 HD
ENDBRANCH   3  12
BRANCH   4  14
ATOM     14  O   UNL     1      43.391  16.962 -22.196  1.00  0.00    -0.504 OA
ATOM     15  H   UNL     1      42.891  17.674 -22.637  1.00  0.00     0.293 HD
ENDBRANCH   4  14
TORSDOF 4
ENDMDL
MODEL 6
REMARK VINA RESULT:    -4.100      0.801      1.861
REMARK INTER + INTRA:          -4.962
REMARK INTER:                  -4.811
REMARK INTRA:                  -0.151
REMARK UNBOUND:                -0.143
REMARK SMILES O=C([O-])/C=C/c1ccc(O)c(O)c1
REMARK SMILES IDX 7 1 8 2 9 3 11 4 13 5 6 6 5 7 4 8 2 9 1 10 3 11 10 12 12 14
REMARK H PARENT 10 13 12 15
ROOT
ATOM      1  C   UNL     1      45.143  17.901 -22.099  1.00  0.00     0.012 A 
ATOM      2  C   UNL     1      44.084  18.744 -22.452  1.00  0.00     0.051 A 
ATOM      3  C   UNL     1      43.381  18.486 -23.622  1.00  0.00     0.157 A 
ATOM      4  C   UNL     1      43.731  17.408 -24.431  1.00  0.00     0.157 A 
ATOM      5  C   UNL     1      44.783  16.568 -24.084  1.00  0.00     0.058 A 
ATOM      6  C   UNL     1      45.496  16.802 -22.901  1.00  0.00    -0.022 A 
ENDROOT
BRANCH   6   7
ATOM      7  C   UNL     1      46.637  15.975 -22.484  1.00  0.00     0.010 C 
ATOM      8  C   UNL     1      47.930  16.300 -22.649  1.00  0.00     0.025 C 
BRANCH   8   9
ATOM      9  C   UNL     1      49.064  15.373 -22.208  1.00  0.00     0.064 C 
ATOM     10  O   UNL     1      50.190  15.911 -22.019  1.00  0.00    -0.545 OA
ATOM     11  O   UNL     1      48.715  14.164 -22.087  1.00  0.00    -0.545 OA
ENDBRANCH   8   9
ENDBRANCH   6   7
BRANCH   3  12
ATOM     12  O   UNL     1      42.335  19.274 -24.022  1.00  0.00    -0.504 OA
ATOM     13  H   UNL     1      42.178  19.091 -24.964  1.00  0.00     0.293 HD
ENDBRANCH   3  12
BRANCH   4  14
ATOM     14  O   UNL     1      43.035  17.177 -25.585  1.00  0.00    -0.504 OA
ATOM     15  H   UNL     1      43.729  17.028 -26.255  1.00  0.00     0.293 HD
ENDBRANCH   4  14
TORSDOF 4
ENDMDL
MODEL 7
REMARK VINA RESULT:    -4.039      2.639      5.632
REMARK INTER + INTRA:          -4.890
REMARK INTER:                  -4.742
REMARK INTRA:                  -0.148
REMARK UNBOUND:                -0.143
REMARK SMILES O=C([O-])/C=C/c1ccc(O)c(O)c1
REMARK SMILES IDX 7 1 8 2 9 3 11 4 13 5 6 6 5 7 4 8 2 9 1 10 3 11 10 12 12 14
REMARK H PARENT 10 13 12 15
ROOT
ATOM      1  C   UNL     1      47.888  17.894 -23.741  1.00  0.00     0.012 A 
ATOM      2  C   UNL     1      48.424  16.648 -23.399  1.00  0.00     0.051 A 
ATOM      3  C   UNL     1      47.642  15.754 -22.680  1.00  0.00     0.157 A 
ATOM      4  C   UNL     1      46.346  16.097 -22.303  1.00  0.00     0.157 A 
ATOM      5  C   UNL     1      45.809  17.334 -22.641  1.00  0.00     0.058 A 
ATOM      6  C   UNL     1      46.576  18.246 -23.377  1.00  0.00    -0.022 A 
ENDROOT
BRANCH   6   7
ATOM      7  C   UNL     1      46.087  19.581 -23.745  1.00  0.00     0.010 C 
ATOM      8  C   UNL     1      46.350  20.714 -23.074  1.00  0.00     0.025 C 
BRANCH   8   9
ATOM      9  C   UNL     1      45.782  22.067 -23.508  1.00  0.00     0.064 C 
ATOM     10  O   UNL     1      45.076  22.072 -24.554  1.00  0.00    -0.545 OA
ATOM     11  O   UNL     1      46.099  23.021 -22.742  1.00  0.00    -0.545 OA
ENDBRANCH   8   9
ENDBRANCH   6   7
BRANCH   3  12
ATOM     12  O   UNL     1      48.110  14.520 -22.315  1.00  0.00    -0.504 OA
ATOM     13  H   UNL     1      48.120  14.489 -21.344  1.00  0.00     0.293 HD
ENDBRANCH   3  12
BRANCH   4  14
ATOM     14  O   UNL     1      45.594  15.208 -21.585  1.00  0.00    -0.504 OA
ATOM     15  H   UNL     1      45.277  15.727 -20.822  1.00  0.00     0.293 HD
ENDBRANCH   4  14
TORSDOF 4
ENDMDL
MODEL 8
REMARK VINA RESULT:    -4.009      3.944      6.370
REMARK INTER + INTRA:          -4.855
REMARK INTER:                  -4.714
REMARK INTRA:                  -0.141
REMARK UNBOUND:                -0.143
REMARK SMILES O=C([O-])/C=C/c1ccc(O)c(O)c1
REMARK SMILES IDX 7 1 8 2 9 3 11 4 13 5 6 6 5 7 4 8 2 9 1 10 3 11 10 12 12 14
REMARK H PARENT 10 13 12 15
ROOT
ATOM      1  C   UNL     1      48.536  17.873 -22.819  1.00  0.00     0.012 A 
ATOM      2  C   UNL     1      48.537  16.495 -23.059  1.00  0.00     0.051 A 
ATOM      3  C   UNL     1      48.918  15.635 -22.039  1.00  0.00     0.157 A 
ATOM      4  C   UNL     1      49.299  16.139 -20.798  1.00  0.00     0.157 A 
ATOM      5  C   UNL     1      49.300  17.508 -20.554  1.00  0.00     0.058 A 
ATOM      6  C   UNL     1      48.906  18.393 -21.566  1.00  0.00    -0.022 A 
ENDROOT
BRANCH   6   7
ATOM      7  C   UNL     1      48.910  19.852 -21.392  1.00  0.00     0.010 C 
ATOM      8  C   UNL     1      47.836  20.599 -21.091  1.00  0.00     0.025 C 
BRANCH   8   9
ATOM      9  C   UNL     1      47.917  22.120 -20.950  1.00  0.00     0.064 C 
ATOM     10  O   UNL     1      47.227  22.799 -21.761  1.00  0.00    -0.545 OA
ATOM     11  O   UNL     1      48.679  22.505 -20.018  1.00  0.00    -0.545 OA
ENDBRANCH   8   9
ENDBRANCH   6   7
BRANCH   3  12
ATOM     12  O   UNL     1      48.939  14.276 -22.211  1.00  0.00    -0.504 OA
ATOM     13  H   UNL     1      49.865  14.017 -22.355  1.00  0.00     0.293 HD
ENDBRANCH   3  12
BRANCH   4  14
ATOM     14  O   UNL     1      49.683  15.277 -19.808  1.00  0.00    -0.504 OA
ATOM     15  H   UNL     1      50.657  15.340 -19.802  1.00  0.00     0.293 HD
ENDBRANCH   4  14
TORSDOF 4
ENDMDL
MODEL 9
REMARK VINA RESULT:    -3.966      2.296      6.644
REMARK INTER + INTRA:          -4.805
REMARK INTER:                  -4.659
REMARK INTRA:                  -0.146
REMARK UNBOUND:                -0.143
REMARK SMILES O=C([O-])/C=C/c1ccc(O)c(O)c1
REMARK SMILES IDX 7 1 8 2 9 3 11 4 13 5 6 6 5 7 4 8 2 9 1 10 3 11 10 12 12 14
REMARK H PARENT 10 13 12 15
ROOT
ATOM      1  C   UNL     1      49.634  17.506 -21.904  1.00  0.00     0.012 A 
ATOM      2  C   UNL     1      50.680  17.177 -21.036  1.00  0.00     0.051 A 
ATOM      3  C   UNL     1      50.932  15.839 -20.764  1.00  0.00     0.157 A 
ATOM      4  C   UNL     1      50.151  14.842 -21.345  1.00  0.00     0.157 A 
ATOM      5  C   UNL     1      49.111  15.165 -22.209  1.00  0.00     0.058 A 
ATOM      6  C   UNL     1      48.847  16.509 -22.507  1.00  0.00    -0.022 A 
ENDROOT
BRANCH   6   7
ATOM      7  C   UNL     1      47.747  16.927 -23.386  1.00  0.00     0.010 C 
ATOM      8  C   UNL     1      46.459  16.582 -23.232  1.00  0.00     0.025 C 
BRANCH   8   9
ATOM      9  C   UNL     1      45.372  17.040 -24.207  1.00  0.00     0.064 C 
ATOM     10  O   UNL     1      44.177  16.848 -23.849  1.00  0.00    -0.545 OA
ATOM     11  O   UNL     1      45.825  17.566 -25.263  1.00  0.00    -0.545 OA
ENDBRANCH   8   9
ENDBRANCH   6   7
BRANCH   3  12
ATOM     12  O   UNL     1      51.941  15.452 -19.923  1.00  0.00    -0.504 OA
ATOM     13  H   UNL     1      51.552  15.327 -19.041  1.00  0.00     0.293 HD
ENDBRANCH   3  12
BRANCH   4  14
ATOM     14  O   UNL     1      50.407  13.530 -21.057  1.00  0.00    -0.504 OA
ATOM     15  H   UNL     1      50.201  13.451 -20.107  1.00  0.00     0.293 HD
ENDBRANCH   4  14
TORSDOF 4
ENDMDL
