MODEL 1
REMARK VINA RESULT:    -4.252      0.000      0.000
REMARK INTER + INTRA:          -5.990
REMARK INTER:                  -5.122
REMARK INTRA:                  -0.868
REMARK UNBOUND:                -0.868
REMARK SMILES O=C1O[C@H]([C@@H](O)CO)C([O-])=C1O
REMARK SMILES IDX 5 1 7 2 8 3 4 5 9 6 3 7 11 8 2 9 1 10 10 11 12 12 6 14
REMARK H PARENT 8 4 12 13 6 15
ROOT
ATOM      1  C   UNL     1      47.098  19.943 -21.073  1.00  0.00     0.184 C 
ENDROOT
BRANCH   1   2
ATOM      2  C   UNL     1      45.889  19.428 -21.863  1.00  0.00     0.192 C 
BRANCH   2   3
ATOM      3  O   UNL     1      44.896  20.465 -21.912  1.00  0.00    -0.394 OA
ATOM      4  H   UNL     1      44.886  20.811 -20.995  1.00  0.00     0.210 HD
ENDBRANCH   2   3
ENDBRANCH   1   2
BRANCH   1   5
ATOM      5  C   UNL     1      47.959  20.977 -21.837  1.00  0.00     0.227 C 
ATOM      6  C   UNL     1      48.162  22.293 -21.131  1.00  0.00    -0.037 C 
ATOM      7  O   UNL     1      47.335  21.316 -23.089  1.00  0.00    -0.450 OA
ATOM      8  C   UNL     1      47.720  23.261 -21.933  1.00  0.00     0.193 C 
ATOM      9  C   UNL     1      47.199  22.673 -23.176  1.00  0.00     0.373 C 
ATOM     10  O   UNL     1      46.714  23.264 -24.127  1.00  0.00    -0.243 OA
ATOM     11  O   UNL     1      48.679  22.276 -19.982  1.00  0.00    -0.870 OA
BRANCH   8  12
ATOM     12  O   UNL     1      47.753  24.590 -21.605  1.00  0.00    -0.502 OA
ATOM     13  H   UNL     1      47.567  24.538 -20.642  1.00  0.00     0.293 HD
ENDBRANCH   8  12
ENDBRANCH   1   5
BRANCH   1  14
ATOM     14  O   UNL     1      46.610  20.484 -19.826  1.00  0.00    -0.387 OA
ATOM     15  H   UNL     1      45.864  21.075 -20.118  1.00  0.00     0.211 HD
ENDBRANCH   1  14
TORSDOF 5
ENDMDL
MODEL 2
REMARK VINA RESULT:    -4.156      5.294      6.890
REMARK INTER + INTRA:          -5.875
REMARK INTER:                  -5.015
REMARK INTRA:                  -0.860
REMARK UNBOUND:                -0.868
REMARK SMILES O=C1O[C@H]([C@@H](O)CO)C([O-])=C1O
REMARK SMILES IDX 5 1 7 2 8 3 4 5 9 6 3 7 11 8 2 9 1 10 10 11 12 12 6 14
REMARK H PARENT 8 4 12 13 6 15
ROOT
ATOM      1  C   UNL     1      48.173  17.190 -21.823  1.00  0.00     0.184 C 
ENDROOT
BRANCH   1   2
ATOM      2  C   UNL     1      48.232  18.657 -21.379  1.00  0.00     0.192 C 
BRANCH   2   3
ATOM      3  O   UNL     1      48.730  18.711 -20.033  1.00  0.00    -0.394 OA
ATOM      4  H   UNL     1      49.607  19.138 -20.134  1.00  0.00     0.210 HD
ENDBRANCH   2   3
ENDBRANCH   1   2
BRANCH   1   5
ATOM      5  C   UNL     1      49.543  16.597 -22.229  1.00  0.00     0.227 C 
ATOM      6  C   UNL     1      49.828  15.214 -21.701  1.00  0.00    -0.037 C 
ATOM      7  O   UNL     1      50.611  17.419 -21.723  1.00  0.00    -0.450 OA
ATOM      8  C   UNL     1      50.960  15.269 -20.999  1.00  0.00     0.193 C 
ATOM      9  C   UNL     1      51.477  16.645 -21.003  1.00  0.00     0.373 C 
ATOM     10  O   UNL     1      52.489  17.057 -20.458  1.00  0.00    -0.243 OA
ATOM     11  O   UNL     1      49.017  14.292 -21.982  1.00  0.00    -0.870 OA
BRANCH   8  12
ATOM     12  O   UNL     1      51.517  14.185 -20.375  1.00  0.00    -0.502 OA
ATOM     13  H   UNL     1      51.886  13.708 -21.151  1.00  0.00     0.293 HD
ENDBRANCH   8  12
ENDBRANCH   1   5
BRANCH   1  14
ATOM     14  O   UNL     1      47.568  16.431 -20.752  1.00  0.00    -0.387 OA
ATOM     15  H   UNL     1      47.902  15.508 -20.919  1.00  0.00     0.211 HD
ENDBRANCH   1  14
TORSDOF 5
ENDMDL
MODEL 3
REMARK VINA RESULT:    -4.134      1.294      2.297
REMARK INTER + INTRA:          -5.848
REMARK INTER:                  -4.959
REMARK INTRA:                  -0.890
REMARK UNBOUND:                -0.868
REMARK SMILES O=C1O[C@H]([C@@H](O)CO)C([O-])=C1O
REMARK SMILES IDX 5 1 7 2 8 3 4 5 9 6 3 7 11 8 2 9 1 10 10 11 12 12 6 14
REMARK H PARENT 8 4 12 13 6 15
ROOT
ATOM      1  C   UNL     1      45.970  20.754 -23.126  1.00  0.00     0.184 C 
ENDROOT
BRANCH   1   2
ATOM      2  C   UNL     1      45.173  21.724 -24.006  1.00  0.00     0.192 C 
BRANCH   2   3
ATOM      3  O   UNL     1      44.849  22.890 -23.232  1.00  0.00    -0.394 OA
ATOM      4  H   UNL     1      43.899  22.766 -23.025  1.00  0.00     0.210 HD
ENDBRANCH   2   3
ENDBRANCH   1   2
BRANCH   1   5
ATOM      5  C   UNL     1      47.397  21.242 -22.779  1.00  0.00     0.227 C 
ATOM      6  C   UNL     1      47.780  21.134 -21.326  1.00  0.00    -0.037 C 
ATOM      7  O   UNL     1      47.537  22.638 -23.101  1.00  0.00    -0.450 OA
ATOM      8  C   UNL     1      48.126  22.349 -20.901  1.00  0.00     0.193 C 
ATOM      9  C   UNL     1      47.988  23.314 -22.002  1.00  0.00     0.373 C 
ATOM     10  O   UNL     1      48.215  24.513 -21.968  1.00  0.00    -0.243 OA
ATOM     11  O   UNL     1      47.719  20.000 -20.779  1.00  0.00    -0.870 OA
BRANCH   8  12
ATOM     12  O   UNL     1      48.532  22.617 -19.621  1.00  0.00    -0.502 OA
ATOM     13  H   UNL     1      47.823  22.164 -19.114  1.00  0.00     0.293 HD
ENDBRANCH   8  12
ENDBRANCH   1   5
BRANCH   1  14
ATOM     14  O   UNL     1      45.195  20.507 -21.931  1.00  0.00    -0.387 OA
ATOM     15  H   UNL     1      44.369  21.039 -22.089  1.00  0.00     0.211 HD
ENDBRANCH   1  14
TORSDOF 5
ENDMDL
MODEL 4
REMARK VINA RESULT:    -4.062      5.978      7.535
REMARK INTER + INTRA:          -5.762
REMARK INTER:                  -5.155
REMARK INTRA:                  -0.607
REMARK UNBOUND:                -0.868
REMARK SMILES O=C1O[C@H]([C@@H](O)CO)C([O-])=C1O
REMARK SMILES IDX 5 1 7 2 8 3 4 5 9 6 3 7 11 8 2 9 1 10 10 11 12 12 6 14
REMARK H PARENT 8 4 12 13 6 15
ROOT
ATOM      1  C   UNL     1      52.842  17.637 -20.334  1.00  0.00     0.184 C 
ENDROOT
BRANCH   1   2
ATOM      2  C   UNL     1      53.922  17.493 -21.413  1.00  0.00     0.192 C 
BRANCH   2   3
ATOM      3  O   UNL     1      53.754  16.223 -22.065  1.00  0.00    -0.394 OA
ATOM      4  H   UNL     1      53.398  16.468 -22.945  1.00  0.00     0.210 HD
ENDBRANCH   2   3
ENDBRANCH   1   2
BRANCH   1   5
ATOM      5  C   UNL     1      51.404  17.369 -20.838  1.00  0.00     0.227 C 
ATOM      6  C   UNL     1      50.315  17.575 -19.816  1.00  0.00    -0.037 C 
ATOM      7  O   UNL     1      51.271  15.998 -21.256  1.00  0.00    -0.450 OA
ATOM      8  C   UNL     1      49.633  16.436 -19.709  1.00  0.00     0.193 C 
ATOM      9  C   UNL     1      50.211  15.427 -20.609  1.00  0.00     0.373 C 
ATOM     10  O   UNL     1      49.840  14.275 -20.765  1.00  0.00    -0.243 OA
ATOM     11  O   UNL     1      50.224  18.705 -19.266  1.00  0.00    -0.870 OA
BRANCH   8  12
ATOM     12  O   UNL     1      48.566  16.268 -18.866  1.00  0.00    -0.502 OA
ATOM     13  H   UNL     1      47.825  16.438 -19.487  1.00  0.00     0.293 HD
ENDBRANCH   8  12
ENDBRANCH   1   5
BRANCH   1  14
ATOM     14  O   UNL     1      53.190  16.755 -19.243  1.00  0.00    -0.387 OA
ATOM     15  H   UNL     1      54.092  16.425 -19.505  1.00  0.00     0.211 HD
ENDBRANCH   1  14
TORSDOF 5
ENDMDL
MODEL 5
REMARK VINA RESULT:    -4.049      5.552      7.185
REMARK INTER + INTRA:          -5.745
REMARK INTER:                  -4.855
REMARK INTRA:                  -0.890
REMARK UNBOUND:                -0.868
REMARK SMILES O=C1O[C@H]([C@@H](O)CO)C([O-])=C1O
REMARK SMILES IDX 5 1 7 2 8 3 4 5 9 6 3 7 11 8 2 9 1 10 10 11 12 12 6 14
REMARK H PARENT 8 4 12 13 6 15
ROOT
ATOM      1  C   UNL     1      50.328  17.166 -19.314  1.00  0.00     0.184 C 
ENDROOT
BRANCH   1   2
ATOM      2  C   UNL     1      50.315  16.239 -18.094  1.00  0.00     0.192 C 
BRANCH   2   3
ATOM      3  O   UNL     1      49.158  15.390 -18.173  1.00  0.00    -0.394 OA
ATOM      4  H   UNL     1      49.543  14.496 -18.294  1.00  0.00     0.210 HD
ENDBRANCH   2   3
ENDBRANCH   1   2
BRANCH   1   5
ATOM      5  C   UNL     1      50.676  16.457 -20.645  1.00  0.00     0.227 C 
ATOM      6  C   UNL     1      49.744  16.746 -21.793  1.00  0.00    -0.037 C 
ATOM      7  O   UNL     1      50.630  15.029 -20.474  1.00  0.00    -0.450 OA
ATOM      8  C   UNL     1      49.257  15.585 -22.228  1.00  0.00     0.193 C 
ATOM      9  C   UNL     1      49.804  14.486 -21.418  1.00  0.00     0.373 C 
ATOM     10  O   UNL     1      49.571  13.294 -21.536  1.00  0.00    -0.243 OA
ATOM     11  O   UNL     1      49.581  17.948 -22.137  1.00  0.00    -0.870 OA
BRANCH   8  12
ATOM     12  O   UNL     1      48.374  15.476 -23.269  1.00  0.00    -0.502 OA
ATOM     13  H   UNL     1      48.434  14.512 -23.449  1.00  0.00     0.293 HD
ENDBRANCH   8  12
ENDBRANCH   1   5
BRANCH   1  14
ATOM     14  O   UNL     1      49.038  17.815 -19.388  1.00  0.00    -0.387 OA
ATOM     15  H   UNL     1      49.225  18.616 -19.948  1.00  0.00     0.211 HD
ENDBRANCH   1  14
TORSDOF 5
ENDMDL
MODEL 6
REMARK VINA RESULT:    -3.908      2.269      5.094
REMARK INTER + INTRA:          -5.576
REMARK INTER:                  -4.699
REMARK INTRA:                  -0.877
REMARK UNBOUND:                -0.868
REMARK SMILES O=C1O[C@H]([C@@H](O)CO)C([O-])=C1O
REMARK SMILES IDX 5 1 7 2 8 3 4 5 9 6 3 7 11 8 2 9 1 10 10 11 12 12 6 14
REMARK H PARENT 8 4 12 13 6 15
ROOT
ATOM      1  C   UNL     1      49.627  25.431 -23.847  1.00  0.00     0.184 C 
ENDROOT
BRANCH   1   2
ATOM      2  C   UNL     1      49.883  26.524 -22.803  1.00  0.00     0.192 C 
BRANCH   2   3
ATOM      3  O   UNL     1      48.638  26.853 -22.166  1.00  0.00    -0.394 OA
ATOM      4  H   UNL     1      48.878  26.904 -21.216  1.00  0.00     0.210 HD
ENDBRANCH   2   3
ENDBRANCH   1   2
BRANCH   1   5
ATOM      5  C   UNL     1      49.413  24.020 -23.248  1.00  0.00     0.227 C 
ATOM      6  C   UNL     1      48.216  23.272 -23.775  1.00  0.00    -0.037 C 
ATOM      7  O   UNL     1      49.204  24.110 -21.827  1.00  0.00    -0.450 OA
ATOM      8  C   UNL     1      47.442  22.955 -22.738  1.00  0.00     0.193 C 
ATOM      9  C   UNL     1      48.044  23.467 -21.498  1.00  0.00     0.373 C 
ATOM     10  O   UNL     1      47.605  23.362 -20.364  1.00  0.00    -0.243 OA
ATOM     11  O   UNL     1      48.139  23.075 -25.017  1.00  0.00    -0.870 OA
BRANCH   8  12
ATOM     12  O   UNL     1      46.264  22.266 -22.854  1.00  0.00    -0.502 OA
ATOM     13  H   UNL     1      45.624  22.971 -22.613  1.00  0.00     0.293 HD
ENDBRANCH   8  12
ENDBRANCH   1   5
BRANCH   1  14
ATOM     14  O   UNL     1      48.492  25.841 -24.643  1.00  0.00    -0.387 OA
ATOM     15  H   UNL     1      48.575  25.274 -25.456  1.00  0.00     0.211 HD
ENDBRANCH   1  14
TORSDOF 5
ENDMDL
MODEL 7
REMARK VINA RESULT:    -3.875      2.969      5.346
REMARK INTER + INTRA:          -5.536
REMARK INTER:                  -4.741
REMARK INTRA:                  -0.796
REMARK UNBOUND:                -0.868
REMARK SMILES O=C1O[C@H]([C@@H](O)CO)C([O-])=C1O
REMARK SMILES IDX 5 1 7 2 8 3 4 5 9 6 3 7 11 8 2 9 1 10 10 11 12 12 6 14
REMARK H PARENT 8 4 12 13 6 15
ROOT
ATOM      1  C   UNL     1      46.800  19.961 -21.585  1.00  0.00     0.184 C 
ENDROOT
BRANCH   1   2
ATOM      2  C   UNL     1      48.282  19.697 -21.293  1.00  0.00     0.192 C 
BRANCH   2   3
ATOM      3  O   UNL     1      48.379  18.765 -20.203  1.00  0.00    -0.394 OA
ATOM      4  H   UNL     1      49.343  18.600 -20.134  1.00  0.00     0.210 HD
ENDBRANCH   2   3
ENDBRANCH   1   2
BRANCH   1   5
ATOM      5  C   UNL     1      46.126  18.882 -22.466  1.00  0.00     0.227 C 
ATOM      6  C   UNL     1      44.697  18.562 -22.112  1.00  0.00    -0.037 C 
ATOM      7  O   UNL     1      46.830  17.632 -22.346  1.00  0.00    -0.450 OA
ATOM      8  C   UNL     1      44.620  17.257 -21.854  1.00  0.00     0.193 C 
ATOM      9  C   UNL     1      45.949  16.646 -22.001  1.00  0.00     0.373 C 
ATOM     10  O   UNL     1      46.246  15.474 -21.837  1.00  0.00    -0.243 OA
ATOM     11  O   UNL     1      43.860  19.505 -22.115  1.00  0.00    -0.870 OA
BRANCH   8  12
ATOM     12  O   UNL     1      43.459  16.622 -21.499  1.00  0.00    -0.502 OA
ATOM     13  H   UNL     1      42.943  17.383 -21.153  1.00  0.00     0.293 HD
ENDBRANCH   8  12
ENDBRANCH   1   5
BRANCH   1  14
ATOM     14  O   UNL     1      46.122  20.103 -20.317  1.00  0.00    -0.387 OA
ATOM     15  H   UNL     1      45.511  20.872 -20.477  1.00  0.00     0.211 HD
ENDBRANCH   1  14
TORSDOF 5
ENDMDL
MODEL 8
REMARK VINA RESULT:    -3.874      5.104      6.603
REMARK INTER + INTRA:          -5.535
REMARK INTER:                  -4.796
REMARK INTRA:                  -0.739
REMARK UNBOUND:                -0.868
REMARK SMILES O=C1O[C@H]([C@@H](O)CO)C([O-])=C1O
REMARK SMILES IDX 5 1 7 2 8 3 4 5 9 6 3 7 11 8 2 9 1 10 10 11 12 12 6 14
REMARK H PARENT 8 4 12 13 6 15
ROOT
ATOM      1  C   UNL     1      48.335  15.618 -22.710  1.00  0.00     0.184 C 
ENDROOT
BRANCH   1   2
ATOM      2  C   UNL     1      47.107  16.513 -22.509  1.00  0.00     0.192 C 
BRANCH   2   3
ATOM      3  O   UNL     1      46.667  16.392 -21.146  1.00  0.00    -0.394 OA
ATOM      4  H   UNL     1      47.503  16.427 -20.636  1.00  0.00     0.210 HD
ENDBRANCH   2   3
ENDBRANCH   1   2
BRANCH   1   5
ATOM      5  C   UNL     1      49.595  16.090 -21.946  1.00  0.00     0.227 C 
ATOM      6  C   UNL     1      49.941  15.288 -20.718  1.00  0.00    -0.037 C 
ATOM      7  O   UNL     1      49.415  17.438 -21.475  1.00  0.00    -0.450 OA
ATOM      8  C   UNL     1      49.978  16.122 -19.680  1.00  0.00     0.193 C 
ATOM      9  C   UNL     1      49.656  17.485 -20.130  1.00  0.00     0.373 C 
ATOM     10  O   UNL     1      49.594  18.494 -19.447  1.00  0.00    -0.243 OA
ATOM     11  O   UNL     1      50.130  14.049 -20.852  1.00  0.00    -0.870 OA
BRANCH   8  12
ATOM     12  O   UNL     1      50.265  15.728 -18.400  1.00  0.00    -0.502 OA
ATOM     13  H   UNL     1      49.523  16.151 -17.916  1.00  0.00     0.293 HD
ENDBRANCH   8  12
ENDBRANCH   1   5
BRANCH   1  14
ATOM     14  O   UNL     1      47.965  14.273 -22.333  1.00  0.00    -0.387 OA
ATOM     15  H   UNL     1      48.845  13.840 -22.164  1.00  0.00     0.211 HD
ENDBRANCH   1  14
TORSDOF 5
ENDMDL
MODEL 9
REMARK VINA RESULT:    -3.706      5.559      6.870
REMARK INTER + INTRA:          -5.332
REMARK INTER:                  -4.794
REMARK INTRA:                  -0.538
REMARK UNBOUND:                -0.868
REMARK SMILES O=C1O[C@H]([C@@H](O)CO)C([O-])=C1O
REMARK SMILES IDX 5 1 7 2 8 3 4 5 9 6 3 7 11 8 2 9 1 10 10 11 12 12 6 14
REMARK H PARENT 8 4 12 13 6 15
ROOT
ATOM      1  C   UNL     1      50.706  15.418 -20.631  1.00  0.00     0.184 C 
ENDROOT
BRANCH   1   2
ATOM      2  C   UNL     1      52.014  16.201 -20.792  1.00  0.00     0.192 C 
BRANCH   2   3
ATOM      3  O   UNL     1      52.799  15.582 -21.824  1.00  0.00    -0.394 OA
ATOM      4  H   UNL     1      53.677  15.471 -21.403  1.00  0.00     0.210 HD
ENDBRANCH   2   3
ENDBRANCH   1   2
BRANCH   1   5
ATOM      5  C   UNL     1      49.444  16.195 -21.074  1.00  0.00     0.227 C 
ATOM      6  C   UNL     1      48.745  15.649 -22.292  1.00  0.00    -0.037 C 
ATOM      7  O   UNL     1      49.789  17.550 -21.415  1.00  0.00    -0.450 OA
ATOM      8  C   UNL     1      48.686  16.621 -23.201  1.00  0.00     0.193 C 
ATOM      9  C   UNL     1      49.331  17.832 -22.672  1.00  0.00     0.373 C 
ATOM     10  O   UNL     1      49.461  18.907 -23.235  1.00  0.00    -0.243 OA
ATOM     11  O   UNL     1      48.354  14.451 -22.265  1.00  0.00    -0.870 OA
BRANCH   8  12
ATOM     12  O   UNL     1      48.111  16.471 -24.435  1.00  0.00    -0.502 OA
ATOM     13  H   UNL     1      47.194  16.763 -24.238  1.00  0.00     0.293 HD
ENDBRANCH   8  12
ENDBRANCH   1   5
BRANCH   1  14
ATOM     14  O   UNL     1      50.843  14.179 -21.363  1.00  0.00    -0.387 OA
ATOM     15  H   UNL     1      50.590  14.440 -22.290  1.00  0.00     0.211 HD
ENDBRANCH   1  14
TORSDOF 5
ENDMDL
