MODEL 1
REMARK VINA RESULT:    -5.446      0.000      0.000
REMARK INTER + INTRA:          -7.190
REMARK INTER:                  -6.560
REMARK INTRA:                  -0.629
REMARK UNBOUND:                -0.629
REMARK SMILES O=C1O[C@H]([C@@H](O)CO)C([O-])=C1O
REMARK SMILES IDX 5 1 7 2 8 3 4 5 9 6 3 7 11 8 2 9 1 10 10 11 12 12 6 14
REMARK H PARENT 8 4 12 13 6 15
ROOT
ATOM      1  C   UNL     1      50.559  17.269 -19.353  1.00  0.00     0.184 C 
ENDROOT
BRANCH   1   2
ATOM      2  C   UNL     1      50.513  16.376 -18.108  1.00  0.00     0.192 C 
BRANCH   2   3
ATOM      3  O   UNL     1      49.266  15.662 -18.098  1.00  0.00    -0.394 OA
ATOM      4  H   UNL     1      49.521  14.767 -17.789  1.00  0.00     0.210 HD
ENDBRANCH   2   3
ENDBRANCH   1   2
BRANCH   1   5
ATOM      5  C   UNL     1      50.865  16.509 -20.666  1.00  0.00     0.227 C 
ATOM      6  C   UNL     1      49.928  16.797 -21.810  1.00  0.00    -0.037 C 
ATOM      7  O   UNL     1      50.771  15.089 -20.452  1.00  0.00    -0.450 OA
ATOM      8  C   UNL     1      49.396  15.641 -22.205  1.00  0.00     0.193 C 
ATOM      9  C   UNL     1      49.915  14.548 -21.370  1.00  0.00     0.373 C 
ATOM     10  O   UNL     1      49.639  13.362 -21.449  1.00  0.00    -0.243 OA
ATOM     11  O   UNL     1      49.803  17.993 -22.189  1.00  0.00    -0.870 OA
BRANCH   8  12
ATOM     12  O   UNL     1      48.496  15.533 -23.232  1.00  0.00    -0.502 OA
ATOM     13  H   UNL     1      47.653  15.600 -22.733  1.00  0.00     0.293 HD
ENDBRANCH   8  12
ENDBRANCH   1   5
BRANCH   1  14
ATOM     14  O   UNL     1      49.299  17.973 -19.436  1.00  0.00    -0.387 OA
ATOM     15  H   UNL     1      49.407  18.523 -20.258  1.00  0.00     0.211 HD
ENDBRANCH   1  14
TORSDOF 5
ENDMDL
MODEL 2
REMARK VINA RESULT:    -5.261      7.855      9.571
REMARK INTER + INTRA:          -6.967
REMARK INTER:                  -6.605
REMARK INTRA:                  -0.362
REMARK UNBOUND:                -0.629
REMARK SMILES O=C1O[C@H]([C@@H](O)CO)C([O-])=C1O
REMARK SMILES IDX 5 1 7 2 8 3 4 5 9 6 3 7 11 8 2 9 1 10 10 11 12 12 6 14
REMARK H PARENT 8 4 12 13 6 15
ROOT
ATOM      1  C   UNL     1      42.866  19.882 -24.383  1.00  0.00     0.184 C 
ENDROOT
BRANCH   1   2
ATOM      2  C   UNL     1      41.432  20.421 -24.439  1.00  0.00     0.192 C 
BRANCH   2   3
ATOM      3  O   UNL     1      40.529  19.368 -24.065  1.00  0.00    -0.394 OA
ATOM      4  H   UNL     1      39.930  19.802 -23.421  1.00  0.00     0.210 HD
ENDBRANCH   2   3
ENDBRANCH   1   2
BRANCH   1   5
ATOM      5  C   UNL     1      43.921  20.822 -25.014  1.00  0.00     0.227 C 
ATOM      6  C   UNL     1      45.136  21.089 -24.164  1.00  0.00    -0.037 C 
ATOM      7  O   UNL     1      43.346  22.118 -25.262  1.00  0.00    -0.450 OA
ATOM      8  C   UNL     1      45.234  22.406 -23.990  1.00  0.00     0.193 C 
ATOM      9  C   UNL     1      44.122  23.079 -24.677  1.00  0.00     0.373 C 
ATOM     10  O   UNL     1      43.898  24.278 -24.724  1.00  0.00    -0.243 OA
ATOM     11  O   UNL     1      45.819  20.102 -23.780  1.00  0.00    -0.870 OA
BRANCH   8  12
ATOM     12  O   UNL     1      46.231  23.002 -23.265  1.00  0.00    -0.502 OA
ATOM     13  H   UNL     1      46.001  23.948 -23.396  1.00  0.00     0.293 HD
ENDBRANCH   8  12
ENDBRANCH   1   5
BRANCH   1  14
ATOM     14  O   UNL     1      43.176  19.598 -23.000  1.00  0.00    -0.387 OA
ATOM     15  H   UNL     1      44.112  19.923 -22.912  1.00  0.00     0.211 HD
ENDBRANCH   1  14
TORSDOF 5
ENDMDL
MODEL 3
REMARK VINA RESULT:    -5.172      4.060      4.817
REMARK INTER + INTRA:          -6.860
REMARK INTER:                  -6.234
REMARK INTRA:                  -0.625
REMARK UNBOUND:                -0.629
REMARK SMILES O=C1O[C@H]([C@@H](O)CO)C([O-])=C1O
REMARK SMILES IDX 5 1 7 2 8 3 4 5 9 6 3 7 11 8 2 9 1 10 10 11 12 12 6 14
REMARK H PARENT 8 4 12 13 6 15
ROOT
ATOM      1  C   UNL     1      47.190  19.914 -21.597  1.00  0.00     0.184 C 
ENDROOT
BRANCH   1   2
ATOM      2  C   UNL     1      48.631  19.445 -21.366  1.00  0.00     0.192 C 
BRANCH   2   3
ATOM      3  O   UNL     1      48.656  18.578 -20.220  1.00  0.00    -0.394 OA
ATOM      4  H   UNL     1      48.971  17.726 -20.590  1.00  0.00     0.210 HD
ENDBRANCH   2   3
ENDBRANCH   1   2
BRANCH   1   5
ATOM      5  C   UNL     1      46.343  18.951 -22.463  1.00  0.00     0.227 C 
ATOM      6  C   UNL     1      44.957  18.668 -21.943  1.00  0.00    -0.037 C 
ATOM      7  O   UNL     1      46.982  17.664 -22.546  1.00  0.00    -0.450 OA
ATOM      8  C   UNL     1      44.839  17.350 -21.786  1.00  0.00     0.193 C 
ATOM      9  C   UNL     1      46.099  16.693 -22.165  1.00  0.00     0.373 C 
ATOM     10  O   UNL     1      46.346  15.498 -22.142  1.00  0.00    -0.243 OA
ATOM     11  O   UNL     1      44.183  19.644 -21.753  1.00  0.00    -0.870 OA
BRANCH   8  12
ATOM     12  O   UNL     1      43.701  16.740 -21.328  1.00  0.00    -0.502 OA
ATOM     13  H   UNL     1      44.025  16.389 -20.470  1.00  0.00     0.293 HD
ENDBRANCH   8  12
ENDBRANCH   1   5
BRANCH   1  14
ATOM     14  O   UNL     1      46.584  20.127 -20.303  1.00  0.00    -0.387 OA
ATOM     15  H   UNL     1      46.617  21.116 -20.203  1.00  0.00     0.211 HD
ENDBRANCH   1  14
TORSDOF 5
ENDMDL
MODEL 4
REMARK VINA RESULT:    -5.015      4.236      5.783
REMARK INTER + INTRA:          -6.671
REMARK INTER:                  -6.308
REMARK INTRA:                  -0.363
REMARK UNBOUND:                -0.629
REMARK SMILES O=C1O[C@H]([C@@H](O)CO)C([O-])=C1O
REMARK SMILES IDX 5 1 7 2 8 3 4 5 9 6 3 7 11 8 2 9 1 10 10 11 12 12 6 14
REMARK H PARENT 8 4 12 13 6 15
ROOT
ATOM      1  C   UNL     1      46.913  16.230 -22.238  1.00  0.00     0.184 C 
ENDROOT
BRANCH   1   2
ATOM      2  C   UNL     1      48.213  15.859 -22.961  1.00  0.00     0.192 C 
BRANCH   2   3
ATOM      3  O   UNL     1      48.803  14.729 -22.298  1.00  0.00    -0.394 OA
ATOM      4  H   UNL     1      48.197  14.569 -21.544  1.00  0.00     0.210 HD
ENDBRANCH   2   3
ENDBRANCH   1   2
BRANCH   1   5
ATOM      5  C   UNL     1      46.193  17.468 -22.825  1.00  0.00     0.227 C 
ATOM      6  C   UNL     1      44.693  17.465 -22.688  1.00  0.00    -0.037 C 
ATOM      7  O   UNL     1      46.440  17.562 -24.240  1.00  0.00    -0.450 OA
ATOM      8  C   UNL     1      44.169  17.578 -23.908  1.00  0.00     0.193 C 
ATOM      9  C   UNL     1      45.249  17.647 -24.904  1.00  0.00     0.373 C 
ATOM     10  O   UNL     1      45.133  17.749 -26.115  1.00  0.00    -0.243 OA
ATOM     11  O   UNL     1      44.203  17.366 -21.531  1.00  0.00    -0.870 OA
BRANCH   8  12
ATOM     12  O   UNL     1      42.823  17.610 -24.155  1.00  0.00    -0.502 OA
ATOM     13  H   UNL     1      42.486  17.164 -23.347  1.00  0.00     0.293 HD
ENDBRANCH   8  12
ENDBRANCH   1   5
BRANCH   1  14
ATOM     14  O   UNL     1      46.055  15.068 -22.251  1.00  0.00    -0.387 OA
ATOM     15  H   UNL     1      46.600  14.384 -21.776  1.00  0.00     0.211 HD
ENDBRANCH   1  14
TORSDOF 5
ENDMDL
MODEL 5
REMARK VINA RESULT:    -4.973      1.520      4.084
REMARK INTER + INTRA:          -6.619
REMARK INTER:                  -6.099
REMARK INTRA:                  -0.520
REMARK UNBOUND:                -0.629
REMARK SMILES O=C1O[C@H]([C@@H](O)CO)C([O-])=C1O
REMARK SMILES IDX 5 1 7 2 8 3 4 5 9 6 3 7 11 8 2 9 1 10 10 11 12 12 6 14
REMARK H PARENT 8 4 12 13 6 15
ROOT
ATOM      1  C   UNL     1      48.199  15.716 -22.885  1.00  0.00     0.184 C 
ENDROOT
BRANCH   1   2
ATOM      2  C   UNL     1      47.044  16.710 -22.718  1.00  0.00     0.192 C 
BRANCH   2   3
ATOM      3  O   UNL     1      46.499  16.565 -21.397  1.00  0.00    -0.394 OA
ATOM      4  H   UNL     1      45.655  16.091 -21.552  1.00  0.00     0.210 HD
ENDBRANCH   2   3
ENDBRANCH   1   2
BRANCH   1   5
ATOM      5  C   UNL     1      49.514  16.152 -22.197  1.00  0.00     0.227 C 
ATOM      6  C   UNL     1      49.893  15.361 -20.971  1.00  0.00    -0.037 C 
ATOM      7  O   UNL     1      49.411  17.515 -21.746  1.00  0.00    -0.450 OA
ATOM      8  C   UNL     1      50.015  16.213 -19.954  1.00  0.00     0.193 C 
ATOM      9  C   UNL     1      49.724  17.578 -20.417  1.00  0.00     0.373 C 
ATOM     10  O   UNL     1      49.736  18.603 -19.754  1.00  0.00    -0.243 OA
ATOM     11  O   UNL     1      50.026  14.113 -21.088  1.00  0.00    -0.870 OA
BRANCH   8  12
ATOM     12  O   UNL     1      50.354  15.833 -18.683  1.00  0.00    -0.502 OA
ATOM     13  H   UNL     1      50.223  14.862 -18.751  1.00  0.00     0.293 HD
ENDBRANCH   8  12
ENDBRANCH   1   5
BRANCH   1  14
ATOM     14  O   UNL     1      47.749  14.433 -22.393  1.00  0.00    -0.387 OA
ATOM     15  H   UNL     1      48.582  13.887 -22.406  1.00  0.00     0.211 HD
ENDBRANCH   1  14
TORSDOF 5
ENDMDL
MODEL 6
REMARK VINA RESULT:    -4.936      5.918      7.599
REMARK INTER + INTRA:          -6.576
REMARK INTER:                  -5.962
REMARK INTRA:                  -0.614
REMARK UNBOUND:                -0.629
REMARK SMILES O=C1O[C@H]([C@@H](O)CO)C([O-])=C1O
REMARK SMILES IDX 5 1 7 2 8 3 4 5 9 6 3 7 11 8 2 9 1 10 10 11 12 12 6 14
REMARK H PARENT 8 4 12 13 6 15
ROOT
ATOM      1  C   UNL     1      43.182  18.761 -24.798  1.00  0.00     0.184 C 
ENDROOT
BRANCH   1   2
ATOM      2  C   UNL     1      42.415  20.067 -24.562  1.00  0.00     0.192 C 
BRANCH   2   3
ATOM      3  O   UNL     1      41.740  19.983 -23.296  1.00  0.00    -0.394 OA
ATOM      4  H   UNL     1      42.364  20.420 -22.679  1.00  0.00     0.210 HD
ENDBRANCH   2   3
ENDBRANCH   1   2
BRANCH   1   5
ATOM      5  C   UNL     1      44.631  18.772 -24.255  1.00  0.00     0.227 C 
ATOM      6  C   UNL     1      45.085  17.491 -23.604  1.00  0.00    -0.037 C 
ATOM      7  O   UNL     1      44.774  19.780 -23.238  1.00  0.00    -0.450 OA
ATOM      8  C   UNL     1      45.468  17.776 -22.360  1.00  0.00     0.193 C 
ATOM      9  C   UNL     1      45.288  19.212 -22.106  1.00  0.00     0.373 C 
ATOM     10  O   UNL     1      45.532  19.817 -21.074  1.00  0.00    -0.243 OA
ATOM     11  O   UNL     1      45.037  16.430 -24.284  1.00  0.00    -0.870 OA
BRANCH   8  12
ATOM     12  O   UNL     1      45.942  16.840 -21.480  1.00  0.00    -0.502 OA
ATOM     13  H   UNL     1      45.255  16.894 -20.781  1.00  0.00     0.293 HD
ENDBRANCH   8  12
ENDBRANCH   1   5
BRANCH   1  14
ATOM     14  O   UNL     1      42.411  17.687 -24.215  1.00  0.00    -0.387 OA
ATOM     15  H   UNL     1      43.101  16.993 -24.033  1.00  0.00     0.211 HD
ENDBRANCH   1  14
TORSDOF 5
ENDMDL
MODEL 7
REMARK VINA RESULT:    -4.935      4.753      6.253
REMARK INTER + INTRA:          -6.574
REMARK INTER:                  -6.204
REMARK INTRA:                  -0.371
REMARK UNBOUND:                -0.629
REMARK SMILES O=C1O[C@H]([C@@H](O)CO)C([O-])=C1O
REMARK SMILES IDX 5 1 7 2 8 3 4 5 9 6 3 7 11 8 2 9 1 10 10 11 12 12 6 14
REMARK H PARENT 8 4 12 13 6 15
ROOT
ATOM      1  C   UNL     1      44.154  19.079 -23.990  1.00  0.00     0.184 C 
ENDROOT
BRANCH   1   2
ATOM      2  C   UNL     1      45.219  20.180 -23.917  1.00  0.00     0.192 C 
BRANCH   2   3
ATOM      3  O   UNL     1      45.185  20.768 -22.607  1.00  0.00    -0.394 OA
ATOM      4  H   UNL     1      44.689  21.602 -22.748  1.00  0.00     0.210 HD
ENDBRANCH   2   3
ENDBRANCH   1   2
BRANCH   1   5
ATOM      5  C   UNL     1      44.711  17.647 -23.804  1.00  0.00     0.227 C 
ATOM      6  C   UNL     1      45.080  17.277 -22.391  1.00  0.00    -0.037 C 
ATOM      7  O   UNL     1      45.922  17.482 -24.564  1.00  0.00    -0.450 OA
ATOM      8  C   UNL     1      46.362  16.916 -22.383  1.00  0.00     0.193 C 
ATOM      9  C   UNL     1      46.915  17.029 -23.741  1.00  0.00     0.373 C 
ATOM     10  O   UNL     1      48.056  16.784 -24.098  1.00  0.00    -0.243 OA
ATOM     11  O   UNL     1      44.188  17.360 -21.504  1.00  0.00    -0.870 OA
BRANCH   8  12
ATOM     12  O   UNL     1      47.029  16.514 -21.256  1.00  0.00    -0.502 OA
ATOM     13  H   UNL     1      46.725  15.582 -21.196  1.00  0.00     0.293 HD
ENDBRANCH   8  12
ENDBRANCH   1   5
BRANCH   1  14
ATOM     14  O   UNL     1      43.142  19.381 -23.003  1.00  0.00    -0.387 OA
ATOM     15  H   UNL     1      43.504  20.193 -22.556  1.00  0.00     0.211 HD
ENDBRANCH   1  14
TORSDOF 5
ENDMDL
MODEL 8
REMARK VINA RESULT:    -4.910      7.504      9.016
REMARK INTER + INTRA:          -6.544
REMARK INTER:                  -6.317
REMARK INTRA:                  -0.227
REMARK UNBOUND:                -0.629
REMARK SMILES O=C1O[C@H]([C@@H](O)CO)C([O-])=C1O
REMARK SMILES IDX 5 1 7 2 8 3 4 5 9 6 3 7 11 8 2 9 1 10 10 11 12 12 6 14
REMARK H PARENT 8 4 12 13 6 15
ROOT
ATOM      1  C   UNL     1      45.076  20.018 -23.733  1.00  0.00     0.184 C 
ENDROOT
BRANCH   1   2
ATOM      2  C   UNL     1      43.674  19.558 -24.149  1.00  0.00     0.192 C 
BRANCH   2   3
ATOM      3  O   UNL     1      42.789  19.702 -23.025  1.00  0.00    -0.394 OA
ATOM      4  H   UNL     1      42.649  20.671 -22.973  1.00  0.00     0.210 HD
ENDBRANCH   2   3
ENDBRANCH   1   2
BRANCH   1   5
ATOM      5  C   UNL     1      45.677  21.117 -24.641  1.00  0.00     0.227 C 
ATOM      6  C   UNL     1      45.390  22.533 -24.215  1.00  0.00    -0.037 C 
ATOM      7  O   UNL     1      45.140  21.010 -25.973  1.00  0.00    -0.450 OA
ATOM      8  C   UNL     1      44.782  23.151 -25.226  1.00  0.00     0.193 C 
ATOM      9  C   UNL     1      44.617  22.216 -26.349  1.00  0.00     0.373 C 
ATOM     10  O   UNL     1      44.100  22.442 -27.431  1.00  0.00    -0.243 OA
ATOM     11  O   UNL     1      45.743  22.887 -23.058  1.00  0.00    -0.870 OA
BRANCH   8  12
ATOM     12  O   UNL     1      44.378  24.459 -25.182  1.00  0.00    -0.502 OA
ATOM     13  H   UNL     1      44.127  24.532 -24.236  1.00  0.00     0.293 HD
ENDBRANCH   8  12
ENDBRANCH   1   5
BRANCH   1  14
ATOM     14  O   UNL     1      45.005  20.454 -22.357  1.00  0.00    -0.387 OA
ATOM     15  H   UNL     1      45.962  20.597 -22.121  1.00  0.00     0.211 HD
ENDBRANCH   1  14
TORSDOF 5
ENDMDL
MODEL 9
REMARK VINA RESULT:    -4.891      5.154      6.452
REMARK INTER + INTRA:          -6.521
REMARK INTER:                  -6.179
REMARK INTRA:                  -0.342
REMARK UNBOUND:                -0.629
REMARK SMILES O=C1O[C@H]([C@@H](O)CO)C([O-])=C1O
REMARK SMILES IDX 5 1 7 2 8 3 4 5 9 6 3 7 11 8 2 9 1 10 10 11 12 12 6 14
REMARK H PARENT 8 4 12 13 6 15
ROOT
ATOM      1  C   UNL     1      46.153  17.036 -22.068  1.00  0.00     0.184 C 
ENDROOT
BRANCH   1   2
ATOM      2  C   UNL     1      46.818  15.864 -22.798  1.00  0.00     0.192 C 
BRANCH   2   3
ATOM      3  O   UNL     1      46.209  14.639 -22.356  1.00  0.00    -0.394 OA
ATOM      4  H   UNL     1      46.380  14.639 -21.391  1.00  0.00     0.210 HD
ENDBRANCH   2   3
ENDBRANCH   1   2
BRANCH   1   5
ATOM      5  C   UNL     1      45.757  18.214 -22.990  1.00  0.00     0.227 C 
ATOM      6  C   UNL     1      44.676  19.116 -22.454  1.00  0.00    -0.037 C 
ATOM      7  O   UNL     1      45.245  17.716 -24.240  1.00  0.00    -0.450 OA
ATOM      8  C   UNL     1      43.681  19.135 -23.340  1.00  0.00     0.193 C 
ATOM      9  C   UNL     1      44.017  18.266 -24.478  1.00  0.00     0.373 C 
ATOM     10  O   UNL     1      43.336  18.045 -25.467  1.00  0.00    -0.243 OA
ATOM     11  O   UNL     1      44.865  19.672 -21.339  1.00  0.00    -0.870 OA
BRANCH   8  12
ATOM     12  O   UNL     1      42.532  19.861 -23.173  1.00  0.00    -0.502 OA
ATOM     13  H   UNL     1      42.600  20.474 -23.937  1.00  0.00     0.293 HD
ENDBRANCH   8  12
ENDBRANCH   1   5
BRANCH   1  14
ATOM     14  O   UNL     1      45.006  16.517 -21.357  1.00  0.00    -0.387 OA
ATOM     15  H   UNL     1      44.817  15.665 -21.835  1.00  0.00     0.211 HD
ENDBRANCH   1  14
TORSDOF 5
ENDMDL
