MODEL 1
REMARK VINA RESULT:    -6.224      0.000      0.000
REMARK INTER + INTRA:          -7.868
REMARK INTER:                  -7.861
REMARK INTRA:                  -0.007
REMARK UNBOUND:                -0.007
REMARK SMILES O=C([O-])[C@H](O)Cc1ccc(O)c(O)c1
REMARK SMILES IDX 6 1 7 2 8 3 9 4 10 5 14 6 12 7 11 8 13 10 4 12 2 13 1 14
REMARK SMILES IDX 3 15 5 16
REMARK H PARENT 11 9 13 11 5 17
ROOT
ATOM      1  C   UNL     1      48.367  16.455 -22.639  1.00  0.00     0.073 C 
ENDROOT
BRANCH   1   2
ATOM      2  C   UNL     1      47.109  17.255 -22.364  1.00  0.00    -0.041 A 
ATOM      3  C   UNL     1      47.111  18.657 -22.464  1.00  0.00     0.008 A 
ATOM      4  C   UNL     1      45.946  19.388 -22.215  1.00  0.00     0.050 A 
ATOM      5  C   UNL     1      44.782  18.715 -21.879  1.00  0.00     0.157 A 
ATOM      6  C   UNL     1      45.921  16.593 -22.023  1.00  0.00     0.054 A 
ATOM      7  C   UNL     1      44.766  17.326 -21.790  1.00  0.00     0.157 A 
BRANCH   5   8
ATOM      8  O   UNL     1      43.636  19.422 -21.641  1.00  0.00    -0.504 OA
ATOM      9  H   UNL     1      43.113  19.285 -22.456  1.00  0.00     0.293 HD
ENDBRANCH   5   8
BRANCH   7  10
ATOM     10  O   UNL     1      43.583  16.710 -21.477  1.00  0.00    -0.504 OA
ATOM     11  H   UNL     1      43.818  15.817 -21.165  1.00  0.00     0.293 HD
ENDBRANCH   7  10
ENDBRANCH   1   2
BRANCH   1  12
ATOM     12  C   UNL     1      49.312  16.398 -21.439  1.00  0.00     0.164 C 
BRANCH  12  13
ATOM     13  C   UNL     1      49.983  14.995 -21.313  1.00  0.00     0.070 C 
ATOM     14  O   UNL     1      49.308  14.069 -21.866  1.00  0.00    -0.547 OA
ATOM     15  O   UNL     1      51.078  14.934 -20.690  1.00  0.00    -0.547 OA
ENDBRANCH  12  13
BRANCH  12  16
ATOM     16  O   UNL     1      48.551  16.664 -20.225  1.00  0.00    -0.387 OA
ATOM     17  H   UNL     1      48.536  15.767 -19.803  1.00  0.00     0.211 HD
ENDBRANCH  12  16
ENDBRANCH   1  12
TORSDOF 6
ENDMDL
MODEL 2
REMARK VINA RESULT:    -6.166      4.300      7.082
REMARK INTER + INTRA:          -7.796
REMARK INTER:                  -7.573
REMARK INTRA:                  -0.222
REMARK UNBOUND:                -0.007
REMARK SMILES O=C([O-])[C@H](O)Cc1ccc(O)c(O)c1
REMARK SMILES IDX 6 1 7 2 8 3 9 4 10 5 14 6 12 7 11 8 13 10 4 12 2 13 1 14
REMARK SMILES IDX 3 15 5 16
REMARK H PARENT 11 9 13 11 5 17
ROOT
ATOM      1  C   UNL     1      43.384  21.344 -25.127  1.00  0.00     0.073 C 
ENDROOT
BRANCH   1   2
ATOM      2  C   UNL     1      43.754  19.895 -24.880  1.00  0.00    -0.041 A 
ATOM      3  C   UNL     1      44.359  19.125 -25.889  1.00  0.00     0.008 A 
ATOM      4  C   UNL     1      44.704  17.791 -25.654  1.00  0.00     0.050 A 
ATOM      5  C   UNL     1      44.455  17.236 -24.408  1.00  0.00     0.157 A 
ATOM      6  C   UNL     1      43.512  19.315 -23.627  1.00  0.00     0.054 A 
ATOM      7  C   UNL     1      43.869  17.993 -23.397  1.00  0.00     0.157 A 
BRANCH   5   8
ATOM      8  O   UNL     1      44.796  15.934 -24.166  1.00  0.00    -0.504 OA
ATOM      9  H   UNL     1      44.868  15.549 -25.062  1.00  0.00     0.293 HD
ENDBRANCH   5   8
BRANCH   7  10
ATOM     10  O   UNL     1      43.667  17.403 -22.178  1.00  0.00    -0.504 OA
ATOM     11  H   UNL     1      42.726  17.545 -21.962  1.00  0.00     0.293 HD
ENDBRANCH   7  10
ENDBRANCH   1   2
BRANCH   1  12
ATOM     12  C   UNL     1      44.472  22.120 -25.868  1.00  0.00     0.164 C 
BRANCH  12  13
ATOM     13  C   UNL     1      44.988  23.324 -25.018  1.00  0.00     0.070 C 
ATOM     14  O   UNL     1      45.106  24.395 -25.695  1.00  0.00    -0.547 OA
ATOM     15  O   UNL     1      45.231  23.106 -23.800  1.00  0.00    -0.547 OA
ENDBRANCH  12  13
BRANCH  12  16
ATOM     16  O   UNL     1      43.922  22.630 -27.117  1.00  0.00    -0.387 OA
ATOM     17  H   UNL     1      43.997  21.834 -27.703  1.00  0.00     0.211 HD
ENDBRANCH  12  16
ENDBRANCH   1  12
TORSDOF 6
ENDMDL
MODEL 3
REMARK VINA RESULT:    -6.021      2.041      2.612
REMARK INTER + INTRA:          -7.612
REMARK INTER:                  -7.409
REMARK INTRA:                  -0.203
REMARK UNBOUND:                -0.007
REMARK SMILES O=C([O-])[C@H](O)Cc1ccc(O)c(O)c1
REMARK SMILES IDX 6 1 7 2 8 3 9 4 10 5 14 6 12 7 11 8 13 10 4 12 2 13 1 14
REMARK SMILES IDX 3 15 5 16
REMARK H PARENT 11 9 13 11 5 17
ROOT
ATOM      1  C   UNL     1      46.834  16.714 -23.767  1.00  0.00     0.073 C 
ENDROOT
BRANCH   1   2
ATOM      2  C   UNL     1      45.594  17.584 -23.718  1.00  0.00    -0.041 A 
ATOM      3  C   UNL     1      44.796  17.767 -24.861  1.00  0.00     0.008 A 
ATOM      4  C   UNL     1      43.651  18.565 -24.808  1.00  0.00     0.050 A 
ATOM      5  C   UNL     1      43.299  19.168 -23.610  1.00  0.00     0.157 A 
ATOM      6  C   UNL     1      45.221  18.202 -22.516  1.00  0.00     0.054 A 
ATOM      7  C   UNL     1      44.074  18.983 -22.468  1.00  0.00     0.157 A 
BRANCH   5   8
ATOM      8  O   UNL     1      42.176  19.944 -23.546  1.00  0.00    -0.504 OA
ATOM      9  H   UNL     1      41.917  19.891 -22.605  1.00  0.00     0.293 HD
ENDBRANCH   5   8
BRANCH   7  10
ATOM     10  O   UNL     1      43.669  19.582 -21.305  1.00  0.00    -0.504 OA
ATOM     11  H   UNL     1      42.695  19.540 -21.305  1.00  0.00     0.293 HD
ENDBRANCH   7  10
ENDBRANCH   1   2
BRANCH   1  12
ATOM     12  C   UNL     1      47.106  15.988 -22.450  1.00  0.00     0.164 C 
BRANCH  12  13
ATOM     13  C   UNL     1      48.606  15.573 -22.331  1.00  0.00     0.070 C 
ATOM     14  O   UNL     1      49.408  16.527 -22.589  1.00  0.00    -0.547 OA
ATOM     15  O   UNL     1      48.848  14.377 -22.013  1.00  0.00    -0.547 OA
ENDBRANCH  12  13
BRANCH  12  16
ATOM     16  O   UNL     1      46.282  14.788 -22.393  1.00  0.00    -0.387 OA
ATOM     17  H   UNL     1      46.505  14.356 -23.256  1.00  0.00     0.211 HD
ENDBRANCH  12  16
ENDBRANCH   1  12
TORSDOF 6
ENDMDL
MODEL 4
REMARK VINA RESULT:    -5.945      2.721      3.481
REMARK INTER + INTRA:          -7.516
REMARK INTER:                  -7.295
REMARK INTRA:                  -0.221
REMARK UNBOUND:                -0.007
REMARK SMILES O=C([O-])[C@H](O)Cc1ccc(O)c(O)c1
REMARK SMILES IDX 6 1 7 2 8 3 9 4 10 5 14 6 12 7 11 8 13 10 4 12 2 13 1 14
REMARK SMILES IDX 3 15 5 16
REMARK H PARENT 11 9 13 11 5 17
ROOT
ATOM      1  C   UNL     1      45.350  16.619 -23.973  1.00  0.00     0.073 C 
ENDROOT
BRANCH   1   2
ATOM      2  C   UNL     1      44.712  17.972 -24.216  1.00  0.00    -0.041 A 
ATOM      3  C   UNL     1      45.477  19.056 -24.680  1.00  0.00     0.008 A 
ATOM      4  C   UNL     1      44.883  20.300 -24.908  1.00  0.00     0.050 A 
ATOM      5  C   UNL     1      43.523  20.452 -24.683  1.00  0.00     0.157 A 
ATOM      6  C   UNL     1      43.338  18.147 -23.995  1.00  0.00     0.054 A 
ATOM      7  C   UNL     1      42.753  19.383 -24.236  1.00  0.00     0.157 A 
BRANCH   5   8
ATOM      8  O   UNL     1      42.931  21.664 -24.910  1.00  0.00    -0.504 OA
ATOM      9  H   UNL     1      43.306  21.941 -25.770  1.00  0.00     0.293 HD
ENDBRANCH   5   8
BRANCH   7  10
ATOM     10  O   UNL     1      41.410  19.582 -24.052  1.00  0.00    -0.504 OA
ATOM     11  H   UNL     1      40.996  19.450 -24.925  1.00  0.00     0.293 HD
ENDBRANCH   7  10
ENDBRANCH   1   2
BRANCH   1  12
ATOM     12  C   UNL     1      46.288  16.609 -22.766  1.00  0.00     0.164 C 
BRANCH  12  13
ATOM     13  C   UNL     1      47.649  15.929 -23.112  1.00  0.00     0.070 C 
ATOM     14  O   UNL     1      48.308  16.559 -24.000  1.00  0.00    -0.547 OA
ATOM     15  O   UNL     1      47.931  14.862 -22.502  1.00  0.00    -0.547 OA
ENDBRANCH  12  13
BRANCH  12  16
ATOM     16  O   UNL     1      45.655  15.867 -21.683  1.00  0.00    -0.387 OA
ATOM     17  H   UNL     1      44.765  16.301 -21.642  1.00  0.00     0.211 HD
ENDBRANCH  12  16
ENDBRANCH   1  12
TORSDOF 6
ENDMDL
MODEL 5
REMARK VINA RESULT:    -5.938      5.095      7.025
REMARK INTER + INTRA:          -7.507
REMARK INTER:                  -7.328
REMARK INTRA:                  -0.179
REMARK UNBOUND:                -0.007
REMARK SMILES O=C([O-])[C@H](O)Cc1ccc(O)c(O)c1
REMARK SMILES IDX 6 1 7 2 8 3 9 4 10 5 14 6 12 7 11 8 13 10 4 12 2 13 1 14
REMARK SMILES IDX 3 15 5 16
REMARK H PARENT 11 9 13 11 5 17
ROOT
ATOM      1  C   UNL     1      45.724  21.471 -25.219  1.00  0.00     0.073 C 
ENDROOT
BRANCH   1   2
ATOM      2  C   UNL     1      44.920  20.216 -24.943  1.00  0.00    -0.041 A 
ATOM      3  C   UNL     1      45.531  18.950 -24.965  1.00  0.00     0.008 A 
ATOM      4  C   UNL     1      44.786  17.797 -24.703  1.00  0.00     0.050 A 
ATOM      5  C   UNL     1      43.437  17.914 -24.407  1.00  0.00     0.157 A 
ATOM      6  C   UNL     1      43.554  20.313 -24.640  1.00  0.00     0.054 A 
ATOM      7  C   UNL     1      42.824  19.164 -24.368  1.00  0.00     0.157 A 
BRANCH   5   8
ATOM      8  O   UNL     1      42.701  16.792 -24.142  1.00  0.00    -0.504 OA
ATOM      9  H   UNL     1      41.807  17.145 -23.964  1.00  0.00     0.293 HD
ENDBRANCH   5   8
BRANCH   7  10
ATOM     10  O   UNL     1      41.494  19.225 -24.047  1.00  0.00    -0.504 OA
ATOM     11  H   UNL     1      41.035  18.655 -24.692  1.00  0.00     0.293 HD
ENDBRANCH   7  10
ENDBRANCH   1   2
BRANCH   1  12
ATOM     12  C   UNL     1      45.014  22.746 -24.764  1.00  0.00     0.164 C 
BRANCH  12  13
ATOM     13  C   UNL     1      45.444  23.972 -25.628  1.00  0.00     0.070 C 
ATOM     14  O   UNL     1      44.475  24.499 -26.261  1.00  0.00    -0.547 OA
ATOM     15  O   UNL     1      46.665  24.289 -25.610  1.00  0.00    -0.547 OA
ENDBRANCH  12  13
BRANCH  12  16
ATOM     16  O   UNL     1      45.360  23.008 -23.373  1.00  0.00    -0.387 OA
ATOM     17  H   UNL     1      45.228  23.989 -23.320  1.00  0.00     0.211 HD
ENDBRANCH  12  16
ENDBRANCH   1  12
TORSDOF 6
ENDMDL
MODEL 6
REMARK VINA RESULT:    -5.868      3.898      6.653
REMARK INTER + INTRA:          -7.419
REMARK INTER:                  -7.285
REMARK INTRA:                  -0.134
REMARK UNBOUND:                -0.007
REMARK SMILES O=C([O-])[C@H](O)Cc1ccc(O)c(O)c1
REMARK SMILES IDX 6 1 7 2 8 3 9 4 10 5 14 6 12 7 11 8 13 10 4 12 2 13 1 14
REMARK SMILES IDX 3 15 5 16
REMARK H PARENT 11 9 13 11 5 17
ROOT
ATOM      1  C   UNL     1      45.390  21.075 -24.882  1.00  0.00     0.073 C 
ENDROOT
BRANCH   1   2
ATOM      2  C   UNL     1      45.018  19.924 -23.968  1.00  0.00    -0.041 A 
ATOM      3  C   UNL     1      45.553  19.831 -22.672  1.00  0.00     0.008 A 
ATOM      4  C   UNL     1      45.202  18.771 -21.832  1.00  0.00     0.050 A 
ATOM      5  C   UNL     1      44.306  17.815 -22.286  1.00  0.00     0.157 A 
ATOM      6  C   UNL     1      44.114  18.947 -24.408  1.00  0.00     0.054 A 
ATOM      7  C   UNL     1      43.760  17.904 -23.563  1.00  0.00     0.157 A 
BRANCH   5   8
ATOM      8  O   UNL     1      43.951  16.778 -21.469  1.00  0.00    -0.504 OA
ATOM      9  H   UNL     1      43.651  16.089 -22.095  1.00  0.00     0.293 HD
ENDBRANCH   5   8
BRANCH   7  10
ATOM     10  O   UNL     1      42.863  16.945 -23.953  1.00  0.00    -0.504 OA
ATOM     11  H   UNL     1      42.532  17.225 -24.827  1.00  0.00     0.293 HD
ENDBRANCH   7  10
ENDBRANCH   1   2
BRANCH   1  12
ATOM     12  C   UNL     1      44.550  22.328 -24.635  1.00  0.00     0.164 C 
BRANCH  12  13
ATOM     13  C   UNL     1      44.513  23.243 -25.898  1.00  0.00     0.070 C 
ATOM     14  O   UNL     1      44.168  22.621 -26.953  1.00  0.00    -0.547 OA
ATOM     15  O   UNL     1      44.829  24.454 -25.741  1.00  0.00    -0.547 OA
ENDBRANCH  12  13
BRANCH  12  16
ATOM     16  O   UNL     1      45.133  23.077 -23.530  1.00  0.00    -0.387 OA
ATOM     17  H   UNL     1      45.514  22.348 -22.978  1.00  0.00     0.211 HD
ENDBRANCH  12  16
ENDBRANCH   1  12
TORSDOF 6
ENDMDL
MODEL 7
REMARK VINA RESULT:    -5.744      3.650      5.071
REMARK INTER + INTRA:          -7.263
REMARK INTER:                  -7.055
REMARK INTRA:                  -0.208
REMARK UNBOUND:                -0.007
REMARK SMILES O=C([O-])[C@H](O)Cc1ccc(O)c(O)c1
REMARK SMILES IDX 6 1 7 2 8 3 9 4 10 5 14 6 12 7 11 8 13 10 4 12 2 13 1 14
REMARK SMILES IDX 3 15 5 16
REMARK H PARENT 11 9 13 11 5 17
ROOT
ATOM      1  C   UNL     1      43.888  17.605 -24.142  1.00  0.00     0.073 C 
ENDROOT
BRANCH   1   2
ATOM      2  C   UNL     1      43.930  18.949 -24.840  1.00  0.00    -0.041 A 
ATOM      3  C   UNL     1      44.860  19.200 -25.864  1.00  0.00     0.008 A 
ATOM      4  C   UNL     1      44.890  20.439 -26.509  1.00  0.00     0.050 A 
ATOM      5  C   UNL     1      43.983  21.419 -26.137  1.00  0.00     0.157 A 
ATOM      6  C   UNL     1      43.021  19.953 -24.479  1.00  0.00     0.054 A 
ATOM      7  C   UNL     1      43.049  21.178 -25.133  1.00  0.00     0.157 A 
BRANCH   5   8
ATOM      8  O   UNL     1      44.001  22.632 -26.767  1.00  0.00    -0.504 OA
ATOM      9  H   UNL     1      43.295  23.134 -26.312  1.00  0.00     0.293 HD
ENDBRANCH   5   8
BRANCH   7  10
ATOM     10  O   UNL     1      42.161  22.172 -24.820  1.00  0.00    -0.504 OA
ATOM     11  H   UNL     1      42.270  22.857 -25.506  1.00  0.00     0.293 HD
ENDBRANCH   7  10
ENDBRANCH   1   2
BRANCH   1  12
ATOM     12  C   UNL     1      44.633  17.602 -22.807  1.00  0.00     0.164 C 
BRANCH  12  13
ATOM     13  C   UNL     1      45.910  16.707 -22.873  1.00  0.00     0.070 C 
ATOM     14  O   UNL     1      46.539  16.820 -23.973  1.00  0.00    -0.547 OA
ATOM     15  O   UNL     1      46.162  15.989 -21.868  1.00  0.00    -0.547 OA
ENDBRANCH  12  13
BRANCH  12  16
ATOM     16  O   UNL     1      43.748  17.080 -21.773  1.00  0.00    -0.387 OA
ATOM     17  H   UNL     1      44.361  16.482 -21.274  1.00  0.00     0.211 HD
ENDBRANCH  12  16
ENDBRANCH   1  12
TORSDOF 6
ENDMDL
MODEL 8
REMARK VINA RESULT:    -5.705      1.702      2.164
REMARK INTER + INTRA:          -7.213
REMARK INTER:                  -7.011
REMARK INTRA:                  -0.202
REMARK UNBOUND:                -0.007
REMARK SMILES O=C([O-])[C@H](O)Cc1ccc(O)c(O)c1
REMARK SMILES IDX 6 1 7 2 8 3 9 4 10 5 14 6 12 7 11 8 13 10 4 12 2 13 1 14
REMARK SMILES IDX 3 15 5 16
REMARK H PARENT 11 9 13 11 5 17
ROOT
ATOM      1  C   UNL     1      47.757  17.239 -21.842  1.00  0.00     0.073 C 
ENDROOT
BRANCH   1   2
ATOM      2  C   UNL     1      46.410  17.413 -22.514  1.00  0.00    -0.041 A 
ATOM      3  C   UNL     1      46.046  16.619 -23.615  1.00  0.00     0.008 A 
ATOM      4  C   UNL     1      44.800  16.781 -24.227  1.00  0.00     0.050 A 
ATOM      5  C   UNL     1      43.917  17.726 -23.727  1.00  0.00     0.157 A 
ATOM      6  C   UNL     1      45.502  18.363 -22.023  1.00  0.00     0.054 A 
ATOM      7  C   UNL     1      44.261  18.508 -22.629  1.00  0.00     0.157 A 
BRANCH   5   8
ATOM      8  O   UNL     1      42.693  17.885 -24.314  1.00  0.00    -0.504 OA
ATOM      9  H   UNL     1      42.844  17.593 -25.235  1.00  0.00     0.293 HD
ENDBRANCH   5   8
BRANCH   7  10
ATOM     10  O   UNL     1      43.343  19.410 -22.161  1.00  0.00    -0.504 OA
ATOM     11  H   UNL     1      43.802  19.935 -21.479  1.00  0.00     0.293 HD
ENDBRANCH   7  10
ENDBRANCH   1   2
BRANCH   1  12
ATOM     12  C   UNL     1      48.753  16.455 -22.697  1.00  0.00     0.164 C 
BRANCH  12  13
ATOM     13  C   UNL     1      49.586  15.461 -21.829  1.00  0.00     0.070 C 
ATOM     14  O   UNL     1      49.182  14.259 -21.925  1.00  0.00    -0.547 OA
ATOM     15  O   UNL     1      50.528  15.944 -21.145  1.00  0.00    -0.547 OA
ENDBRANCH  12  13
BRANCH  12  16
ATOM     16  O   UNL     1      49.665  17.394 -23.339  1.00  0.00    -0.387 OA
ATOM     17  H   UNL     1      49.961  16.871 -24.127  1.00  0.00     0.211 HD
ENDBRANCH  12  16
ENDBRANCH   1  12
TORSDOF 6
ENDMDL
MODEL 9
REMARK VINA RESULT:    -5.680      2.020      2.498
REMARK INTER + INTRA:          -7.181
REMARK INTER:                  -6.961
REMARK INTRA:                  -0.221
REMARK UNBOUND:                -0.007
REMARK SMILES O=C([O-])[C@H](O)Cc1ccc(O)c(O)c1
REMARK SMILES IDX 6 1 7 2 8 3 9 4 10 5 14 6 12 7 11 8 13 10 4 12 2 13 1 14
REMARK SMILES IDX 3 15 5 16
REMARK H PARENT 11 9 13 11 5 17
ROOT
ATOM      1  C   UNL     1      46.153  16.260 -21.957  1.00  0.00     0.073 C 
ENDROOT
BRANCH   1   2
ATOM      2  C   UNL     1      45.222  17.297 -22.554  1.00  0.00    -0.041 A 
ATOM      3  C   UNL     1      44.877  18.454 -21.834  1.00  0.00     0.008 A 
ATOM      4  C   UNL     1      44.024  19.410 -22.392  1.00  0.00     0.050 A 
ATOM      5  C   UNL     1      43.528  19.211 -23.671  1.00  0.00     0.157 A 
ATOM      6  C   UNL     1      44.711  17.116 -23.847  1.00  0.00     0.054 A 
ATOM      7  C   UNL     1      43.873  18.076 -24.398  1.00  0.00     0.157 A 
BRANCH   5   8
ATOM      8  O   UNL     1      42.698  20.144 -24.228  1.00  0.00    -0.504 OA
ATOM      9  H   UNL     1      43.269  20.934 -24.312  1.00  0.00     0.293 HD
ENDBRANCH   5   8
BRANCH   7  10
ATOM     10  O   UNL     1      43.374  17.941 -25.667  1.00  0.00    -0.504 OA
ATOM     11  H   UNL     1      42.415  17.794 -25.565  1.00  0.00     0.293 HD
ENDBRANCH   7  10
ENDBRANCH   1   2
BRANCH   1  12
ATOM     12  C   UNL     1      47.618  16.697 -21.968  1.00  0.00     0.164 C 
BRANCH  12  13
ATOM     13  C   UNL     1      48.499  15.709 -22.794  1.00  0.00     0.070 C 
ATOM     14  O   UNL     1      48.521  15.982 -24.036  1.00  0.00    -0.547 OA
ATOM     15  O   UNL     1      49.063  14.775 -22.162  1.00  0.00    -0.547 OA
ENDBRANCH  12  13
BRANCH  12  16
ATOM     16  O   UNL     1      48.111  16.730 -20.597  1.00  0.00    -0.387 OA
ATOM     17  H   UNL     1      47.427  16.185 -20.130  1.00  0.00     0.211 HD
ENDBRANCH  12  16
ENDBRANCH   1  12
TORSDOF 6
ENDMDL
