MODEL 1
REMARK VINA RESULT:    -5.072      0.000      0.000
REMARK INTER + INTRA:          -6.521
REMARK INTER:                  -6.406
REMARK INTRA:                  -0.114
REMARK UNBOUND:                -0.114
REMARK SMILES O=C([O-])[C@H](O)Cc1ccc(O)c(O)c1
REMARK SMILES IDX 6 1 7 2 8 3 9 4 10 5 14 6 12 7 11 8 13 10 4 12 2 13 1 14
REMARK SMILES IDX 3 15 5 16
REMARK H PARENT 11 9 13 11 5 17
ROOT
ATOM      1  C   UNL     1      48.218  16.632 -22.719  1.00  0.00     0.073 C 
ENDROOT
BRANCH   1   2
ATOM      2  C   UNL     1      46.943  17.386 -22.398  1.00  0.00    -0.041 A 
ATOM      3  C   UNL     1      46.948  18.785 -22.263  1.00  0.00     0.008 A 
ATOM      4  C   UNL     1      45.768  19.476 -21.973  1.00  0.00     0.050 A 
ATOM      5  C   UNL     1      44.585  18.767 -21.832  1.00  0.00     0.157 A 
ATOM      6  C   UNL     1      45.735  16.688 -22.252  1.00  0.00     0.054 A 
ATOM      7  C   UNL     1      44.566  17.382 -21.977  1.00  0.00     0.157 A 
BRANCH   5   8
ATOM      8  O   UNL     1      43.424  19.434 -21.556  1.00  0.00    -0.504 OA
ATOM      9  H   UNL     1      43.388  20.122 -22.250  1.00  0.00     0.293 HD
ENDBRANCH   5   8
BRANCH   7  10
ATOM     10  O   UNL     1      43.366  16.734 -21.850  1.00  0.00    -0.504 OA
ATOM     11  H   UNL     1      42.724  17.408 -21.558  1.00  0.00     0.293 HD
ENDBRANCH   7  10
ENDBRANCH   1   2
BRANCH   1  12
ATOM     12  C   UNL     1      49.099  16.401 -21.492  1.00  0.00     0.164 C 
BRANCH  12  13
ATOM     13  C   UNL     1      49.790  15.003 -21.545  1.00  0.00     0.070 C 
ATOM     14  O   UNL     1      51.028  15.049 -21.254  1.00  0.00    -0.547 OA
ATOM     15  O   UNL     1      49.073  14.018 -21.870  1.00  0.00    -0.547 OA
ENDBRANCH  12  13
BRANCH  12  16
ATOM     16  O   UNL     1      48.270  16.468 -20.295  1.00  0.00    -0.387 OA
ATOM     17  H   UNL     1      48.855  16.980 -19.680  1.00  0.00     0.211 HD
ENDBRANCH  12  16
ENDBRANCH   1  12
TORSDOF 6
ENDMDL
MODEL 2
REMARK VINA RESULT:    -4.906      1.909      2.500
REMARK INTER + INTRA:          -6.311
REMARK INTER:                  -6.073
REMARK INTRA:                  -0.238
REMARK UNBOUND:                -0.114
REMARK SMILES O=C([O-])[C@H](O)Cc1ccc(O)c(O)c1
REMARK SMILES IDX 6 1 7 2 8 3 9 4 10 5 14 6 12 7 11 8 13 10 4 12 2 13 1 14
REMARK SMILES IDX 3 15 5 16
REMARK H PARENT 11 9 13 11 5 17
ROOT
ATOM      1  C   UNL     1      46.657  16.555 -23.722  1.00  0.00     0.073 C 
ENDROOT
BRANCH   1   2
ATOM      2  C   UNL     1      45.442  17.453 -23.598  1.00  0.00    -0.041 A 
ATOM      3  C   UNL     1      44.419  17.417 -24.562  1.00  0.00     0.008 A 
ATOM      4  C   UNL     1      43.298  18.242 -24.439  1.00  0.00     0.050 A 
ATOM      5  C   UNL     1      43.197  19.090 -23.347  1.00  0.00     0.157 A 
ATOM      6  C   UNL     1      45.320  18.317 -22.501  1.00  0.00     0.054 A 
ATOM      7  C   UNL     1      44.197  19.124 -22.380  1.00  0.00     0.157 A 
BRANCH   5   8
ATOM      8  O   UNL     1      42.100  19.896 -23.215  1.00  0.00    -0.504 OA
ATOM      9  H   UNL     1      42.326  20.676 -23.759  1.00  0.00     0.293 HD
ENDBRANCH   5   8
BRANCH   7  10
ATOM     10  O   UNL     1      44.036  19.963 -21.309  1.00  0.00    -0.504 OA
ATOM     11  H   UNL     1      44.413  19.496 -20.541  1.00  0.00     0.293 HD
ENDBRANCH   7  10
ENDBRANCH   1   2
BRANCH   1  12
ATOM     12  C   UNL     1      47.010  15.845 -22.415  1.00  0.00     0.164 C 
BRANCH  12  13
ATOM     13  C   UNL     1      48.479  15.318 -22.436  1.00  0.00     0.070 C 
ATOM     14  O   UNL     1      49.310  16.178 -22.870  1.00  0.00    -0.547 OA
ATOM     15  O   UNL     1      48.670  14.135 -22.044  1.00  0.00    -0.547 OA
ENDBRANCH  12  13
BRANCH  12  16
ATOM     16  O   UNL     1      46.109  14.715 -22.234  1.00  0.00    -0.387 OA
ATOM     17  H   UNL     1      45.453  15.088 -21.591  1.00  0.00     0.211 HD
ENDBRANCH  12  16
ENDBRANCH   1  12
TORSDOF 6
ENDMDL
MODEL 3
REMARK VINA RESULT:    -4.800      0.815      1.820
REMARK INTER + INTRA:          -6.178
REMARK INTER:                  -6.071
REMARK INTRA:                  -0.107
REMARK UNBOUND:                -0.114
REMARK SMILES O=C([O-])[C@H](O)Cc1ccc(O)c(O)c1
REMARK SMILES IDX 6 1 7 2 8 3 9 4 10 5 14 6 12 7 11 8 13 10 4 12 2 13 1 14
REMARK SMILES IDX 3 15 5 16
REMARK H PARENT 11 9 13 11 5 17
ROOT
ATOM      1  C   UNL     1      47.912  16.618 -22.856  1.00  0.00     0.073 C 
ENDROOT
BRANCH   1   2
ATOM      2  C   UNL     1      46.650  17.397 -22.544  1.00  0.00    -0.041 A 
ATOM      3  C   UNL     1      45.455  16.732 -22.217  1.00  0.00     0.008 A 
ATOM      4  C   UNL     1      44.296  17.455 -21.924  1.00  0.00     0.050 A 
ATOM      5  C   UNL     1      44.338  18.841 -21.947  1.00  0.00     0.157 A 
ATOM      6  C   UNL     1      46.671  18.799 -22.561  1.00  0.00     0.054 A 
ATOM      7  C   UNL     1      45.519  19.510 -22.257  1.00  0.00     0.157 A 
BRANCH   5   8
ATOM      8  O   UNL     1      43.211  19.557 -21.655  1.00  0.00    -0.504 OA
ATOM      9  H   UNL     1      43.502  20.486 -21.750  1.00  0.00     0.293 HD
ENDBRANCH   5   8
BRANCH   7  10
ATOM     10  O   UNL     1      45.510  20.880 -22.243  1.00  0.00    -0.504 OA
ATOM     11  H   UNL     1      44.900  21.154 -22.953  1.00  0.00     0.293 HD
ENDBRANCH   7  10
ENDBRANCH   1   2
BRANCH   1  12
ATOM     12  C   UNL     1      48.852  16.500 -21.656  1.00  0.00     0.164 C 
BRANCH  12  13
ATOM     13  C   UNL     1      49.668  15.171 -21.704  1.00  0.00     0.070 C 
ATOM     14  O   UNL     1      50.918  15.350 -21.546  1.00  0.00    -0.547 OA
ATOM     15  O   UNL     1      49.022  14.106 -21.897  1.00  0.00    -0.547 OA
ENDBRANCH  12  13
BRANCH  12  16
ATOM     16  O   UNL     1      48.060  16.520 -20.432  1.00  0.00    -0.387 OA
ATOM     17  H   UNL     1      48.767  16.465 -19.740  1.00  0.00     0.211 HD
ENDBRANCH  12  16
ENDBRANCH   1  12
TORSDOF 6
ENDMDL
MODEL 4
REMARK VINA RESULT:    -4.707      5.373      6.992
REMARK INTER + INTRA:          -6.060
REMARK INTER:                  -5.836
REMARK INTRA:                  -0.225
REMARK UNBOUND:                -0.114
REMARK SMILES O=C([O-])[C@H](O)Cc1ccc(O)c(O)c1
REMARK SMILES IDX 6 1 7 2 8 3 9 4 10 5 14 6 12 7 11 8 13 10 4 12 2 13 1 14
REMARK SMILES IDX 3 15 5 16
REMARK H PARENT 11 9 13 11 5 17
ROOT
ATOM      1  C   UNL     1      46.965  21.773 -22.828  1.00  0.00     0.073 C 
ENDROOT
BRANCH   1   2
ATOM      2  C   UNL     1      46.298  22.527 -23.962  1.00  0.00    -0.041 A 
ATOM      3  C   UNL     1      44.897  22.572 -24.071  1.00  0.00     0.008 A 
ATOM      4  C   UNL     1      44.288  23.274 -25.115  1.00  0.00     0.050 A 
ATOM      5  C   UNL     1      45.081  23.938 -26.038  1.00  0.00     0.157 A 
ATOM      6  C   UNL     1      47.082  23.205 -24.906  1.00  0.00     0.054 A 
ATOM      7  C   UNL     1      46.468  23.911 -25.933  1.00  0.00     0.157 A 
BRANCH   5   8
ATOM      8  O   UNL     1      44.493  24.633 -27.058  1.00  0.00    -0.504 OA
ATOM      9  H   UNL     1      44.532  25.561 -26.752  1.00  0.00     0.293 HD
ENDBRANCH   5   8
BRANCH   7  10
ATOM     10  O   UNL     1      47.203  24.603 -26.859  1.00  0.00    -0.504 OA
ATOM     11  H   UNL     1      47.348  23.988 -27.602  1.00  0.00     0.293 HD
ENDBRANCH   7  10
ENDBRANCH   1   2
BRANCH   1  12
ATOM     12  C   UNL     1      47.808  22.675 -21.927  1.00  0.00     0.164 C 
BRANCH  12  13
ATOM     13  C   UNL     1      48.279  21.916 -20.648  1.00  0.00     0.070 C 
ATOM     14  O   UNL     1      49.034  22.619 -19.903  1.00  0.00    -0.547 OA
ATOM     15  O   UNL     1      47.882  20.728 -20.504  1.00  0.00    -0.547 OA
ENDBRANCH  12  13
BRANCH  12  16
ATOM     16  O   UNL     1      47.004  23.821 -21.522  1.00  0.00    -0.387 OA
ATOM     17  H   UNL     1      47.183  24.457 -22.261  1.00  0.00     0.211 HD
ENDBRANCH  12  16
ENDBRANCH   1  12
TORSDOF 6
ENDMDL
MODEL 5
REMARK VINA RESULT:    -4.684     11.273     12.570
REMARK INTER + INTRA:          -6.031
REMARK INTER:                  -5.836
REMARK INTRA:                  -0.195
REMARK UNBOUND:                -0.114
REMARK SMILES O=C([O-])[C@H](O)Cc1ccc(O)c(O)c1
REMARK SMILES IDX 6 1 7 2 8 3 9 4 10 5 14 6 12 7 11 8 13 10 4 12 2 13 1 14
REMARK SMILES IDX 3 15 5 16
REMARK H PARENT 11 9 13 11 5 17
ROOT
ATOM      1  C   UNL     1      53.466  27.696 -19.467  1.00  0.00     0.073 C 
ENDROOT
BRANCH   1   2
ATOM      2  C   UNL     1      52.217  27.655 -20.326  1.00  0.00    -0.041 A 
ATOM      3  C   UNL     1      51.942  26.546 -21.144  1.00  0.00     0.008 A 
ATOM      4  C   UNL     1      50.786  26.512 -21.929  1.00  0.00     0.050 A 
ATOM      5  C   UNL     1      49.903  27.580 -21.882  1.00  0.00     0.157 A 
ATOM      6  C   UNL     1      51.311  28.725 -20.292  1.00  0.00     0.054 A 
ATOM      7  C   UNL     1      50.159  28.677 -21.065  1.00  0.00     0.157 A 
BRANCH   5   8
ATOM      8  O   UNL     1      48.766  27.551 -22.641  1.00  0.00    -0.504 OA
ATOM      9  H   UNL     1      49.010  28.069 -23.433  1.00  0.00     0.293 HD
ENDBRANCH   5   8
BRANCH   7  10
ATOM     10  O   UNL     1      49.242  29.694 -21.039  1.00  0.00    -0.504 OA
ATOM     11  H   UNL     1      49.020  29.881 -21.970  1.00  0.00     0.293 HD
ENDBRANCH   7  10
ENDBRANCH   1   2
BRANCH   1  12
ATOM     12  C   UNL     1      53.187  27.401 -17.993  1.00  0.00     0.164 C 
BRANCH  12  13
ATOM     13  C   UNL     1      53.314  28.690 -17.124  1.00  0.00     0.070 C 
ATOM     14  O   UNL     1      53.358  28.446 -15.876  1.00  0.00    -0.547 OA
ATOM     15  O   UNL     1      53.348  29.794 -17.732  1.00  0.00    -0.547 OA
ENDBRANCH  12  13
BRANCH  12  16
ATOM     16  O   UNL     1      54.151  26.418 -17.518  1.00  0.00    -0.387 OA
ATOM     17  H   UNL     1      53.563  25.644 -17.324  1.00  0.00     0.211 HD
ENDBRANCH  12  16
ENDBRANCH   1  12
TORSDOF 6
ENDMDL
MODEL 6
REMARK VINA RESULT:    -4.600      3.124      4.930
REMARK INTER + INTRA:          -5.924
REMARK INTER:                  -5.664
REMARK INTRA:                  -0.260
REMARK UNBOUND:                -0.114
REMARK SMILES O=C([O-])[C@H](O)Cc1ccc(O)c(O)c1
REMARK SMILES IDX 6 1 7 2 8 3 9 4 10 5 14 6 12 7 11 8 13 10 4 12 2 13 1 14
REMARK SMILES IDX 3 15 5 16
REMARK H PARENT 11 9 13 11 5 17
ROOT
ATOM      1  C   UNL     1      47.680  20.636 -22.426  1.00  0.00     0.073 C 
ENDROOT
BRANCH   1   2
ATOM      2  C   UNL     1      46.563  19.613 -22.346  1.00  0.00    -0.041 A 
ATOM      3  C   UNL     1      46.849  18.244 -22.203  1.00  0.00     0.008 A 
ATOM      4  C   UNL     1      45.815  17.307 -22.124  1.00  0.00     0.050 A 
ATOM      5  C   UNL     1      44.500  17.743 -22.176  1.00  0.00     0.157 A 
ATOM      6  C   UNL     1      45.227  20.034 -22.396  1.00  0.00     0.054 A 
ATOM      7  C   UNL     1      44.206  19.097 -22.304  1.00  0.00     0.157 A 
BRANCH   5   8
ATOM      8  O   UNL     1      43.482  16.834 -22.091  1.00  0.00    -0.504 OA
ATOM      9  H   UNL     1      43.008  16.946 -22.939  1.00  0.00     0.293 HD
ENDBRANCH   5   8
BRANCH   7  10
ATOM     10  O   UNL     1      42.889  19.476 -22.326  1.00  0.00    -0.504 OA
ATOM     11  H   UNL     1      42.414  18.832 -21.769  1.00  0.00     0.293 HD
ENDBRANCH   7  10
ENDBRANCH   1   2
BRANCH   1  12
ATOM     12  C   UNL     1      47.904  21.379 -21.109  1.00  0.00     0.164 C 
BRANCH  12  13
ATOM     13  C   UNL     1      47.911  22.924 -21.324  1.00  0.00     0.070 C 
ATOM     14  O   UNL     1      48.910  23.496 -20.781  1.00  0.00    -0.547 OA
ATOM     15  O   UNL     1      46.955  23.418 -21.981  1.00  0.00    -0.547 OA
ENDBRANCH  12  13
BRANCH  12  16
ATOM     16  O   UNL     1      49.189  20.977 -20.553  1.00  0.00    -0.387 OA
ATOM     17  H   UNL     1      49.568  20.446 -21.299  1.00  0.00     0.211 HD
ENDBRANCH  12  16
ENDBRANCH   1  12
TORSDOF 6
ENDMDL
MODEL 7
REMARK VINA RESULT:    -4.541      2.917      5.662
REMARK INTER + INTRA:          -5.850
REMARK INTER:                  -5.653
REMARK INTRA:                  -0.197
REMARK UNBOUND:                -0.114
REMARK SMILES O=C([O-])[C@H](O)Cc1ccc(O)c(O)c1
REMARK SMILES IDX 6 1 7 2 8 3 9 4 10 5 14 6 12 7 11 8 13 10 4 12 2 13 1 14
REMARK SMILES IDX 3 15 5 16
REMARK H PARENT 11 9 13 11 5 17
ROOT
ATOM      1  C   UNL     1      49.234  20.007 -21.348  1.00  0.00     0.073 C 
ENDROOT
BRANCH   1   2
ATOM      2  C   UNL     1      49.122  18.513 -21.580  1.00  0.00    -0.041 A 
ATOM      3  C   UNL     1      48.734  18.006 -22.832  1.00  0.00     0.008 A 
ATOM      4  C   UNL     1      48.639  16.628 -23.042  1.00  0.00     0.050 A 
ATOM      5  C   UNL     1      48.944  15.761 -22.004  1.00  0.00     0.157 A 
ATOM      6  C   UNL     1      49.428  17.620 -20.543  1.00  0.00     0.054 A 
ATOM      7  C   UNL     1      49.342  16.252 -20.764  1.00  0.00     0.157 A 
BRANCH   5   8
ATOM      8  O   UNL     1      48.861  14.411 -22.203  1.00  0.00    -0.504 OA
ATOM      9  H   UNL     1      48.673  14.334 -23.159  1.00  0.00     0.293 HD
ENDBRANCH   5   8
BRANCH   7  10
ATOM     10  O   UNL     1      49.654  15.351 -19.780  1.00  0.00    -0.504 OA
ATOM     11  H   UNL     1      50.313  15.791 -19.211  1.00  0.00     0.293 HD
ENDBRANCH   7  10
ENDBRANCH   1   2
BRANCH   1  12
ATOM     12  C   UNL     1      47.875  20.696 -21.231  1.00  0.00     0.164 C 
BRANCH  12  13
ATOM     13  C   UNL     1      48.034  22.204 -20.866  1.00  0.00     0.070 C 
ATOM     14  O   UNL     1      48.923  22.410 -19.978  1.00  0.00    -0.547 OA
ATOM     15  O   UNL     1      47.283  23.023 -21.462  1.00  0.00    -0.547 OA
ENDBRANCH  12  13
BRANCH  12  16
ATOM     16  O   UNL     1      47.101  20.039 -20.186  1.00  0.00    -0.387 OA
ATOM     17  H   UNL     1      47.728  19.330 -19.894  1.00  0.00     0.211 HD
ENDBRANCH  12  16
ENDBRANCH   1  12
TORSDOF 6
ENDMDL
MODEL 8
REMARK VINA RESULT:    -4.517     11.124     12.828
REMARK INTER + INTRA:          -5.820
REMARK INTER:                  -5.593
REMARK INTRA:                  -0.226
REMARK UNBOUND:                -0.114
REMARK SMILES O=C([O-])[C@H](O)Cc1ccc(O)c(O)c1
REMARK SMILES IDX 6 1 7 2 8 3 9 4 10 5 14 6 12 7 11 8 13 10 4 12 2 13 1 14
REMARK SMILES IDX 3 15 5 16
REMARK H PARENT 11 9 13 11 5 17
ROOT
ATOM      1  C   UNL     1      51.671  28.220 -21.255  1.00  0.00     0.073 C 
ENDROOT
BRANCH   1   2
ATOM      2  C   UNL     1      52.161  28.269 -19.822  1.00  0.00    -0.041 A 
ATOM      3  C   UNL     1      52.132  29.470 -19.092  1.00  0.00     0.008 A 
ATOM      4  C   UNL     1      52.579  29.508 -17.768  1.00  0.00     0.050 A 
ATOM      5  C   UNL     1      53.042  28.343 -17.175  1.00  0.00     0.157 A 
ATOM      6  C   UNL     1      52.632  27.102 -19.203  1.00  0.00     0.054 A 
ATOM      7  C   UNL     1      53.063  27.146 -17.884  1.00  0.00     0.157 A 
BRANCH   5   8
ATOM      8  O   UNL     1      53.474  28.369 -15.878  1.00  0.00    -0.504 OA
ATOM      9  H   UNL     1      52.663  28.181 -15.366  1.00  0.00     0.293 HD
ENDBRANCH   5   8
BRANCH   7  10
ATOM     10  O   UNL     1      53.508  26.020 -17.243  1.00  0.00    -0.504 OA
ATOM     11  H   UNL     1      52.744  25.416 -17.196  1.00  0.00     0.293 HD
ENDBRANCH   7  10
ENDBRANCH   1   2
BRANCH   1  12
ATOM     12  C   UNL     1      50.193  27.847 -21.368  1.00  0.00     0.164 C 
BRANCH  12  13
ATOM     13  C   UNL     1      49.958  26.797 -22.498  1.00  0.00     0.070 C 
ATOM     14  O   UNL     1      48.824  26.227 -22.418  1.00  0.00    -0.547 OA
ATOM     15  O   UNL     1      50.890  26.629 -23.330  1.00  0.00    -0.547 OA
ENDBRANCH  12  13
BRANCH  12  16
ATOM     16  O   UNL     1      49.426  29.047 -21.676  1.00  0.00    -0.387 OA
ATOM     17  H   UNL     1      50.107  29.603 -22.134  1.00  0.00     0.211 HD
ENDBRANCH  12  16
ENDBRANCH   1  12
TORSDOF 6
ENDMDL
MODEL 9
REMARK VINA RESULT:    -4.381      3.903      5.352
REMARK INTER + INTRA:          -5.648
REMARK INTER:                  -5.430
REMARK INTRA:                  -0.219
REMARK UNBOUND:                -0.114
REMARK SMILES O=C([O-])[C@H](O)Cc1ccc(O)c(O)c1
REMARK SMILES IDX 6 1 7 2 8 3 9 4 10 5 14 6 12 7 11 8 13 10 4 12 2 13 1 14
REMARK SMILES IDX 3 15 5 16
REMARK H PARENT 11 9 13 11 5 17
ROOT
ATOM      1  C   UNL     1      46.589  20.687 -22.111  1.00  0.00     0.073 C 
ENDROOT
BRANCH   1   2
ATOM      2  C   UNL     1      45.817  19.516 -22.685  1.00  0.00    -0.041 A 
ATOM      3  C   UNL     1      45.914  19.189 -24.049  1.00  0.00     0.008 A 
ATOM      4  C   UNL     1      45.204  18.104 -24.572  1.00  0.00     0.050 A 
ATOM      5  C   UNL     1      44.412  17.343 -23.727  1.00  0.00     0.157 A 
ATOM      6  C   UNL     1      45.010  18.732 -21.848  1.00  0.00     0.054 A 
ATOM      7  C   UNL     1      44.319  17.649 -22.373  1.00  0.00     0.157 A 
BRANCH   5   8
ATOM      8  O   UNL     1      43.720  16.275 -24.229  1.00  0.00    -0.504 OA
ATOM      9  H   UNL     1      43.833  16.366 -25.196  1.00  0.00     0.293 HD
ENDBRANCH   5   8
BRANCH   7  10
ATOM     10  O   UNL     1      43.540  16.850 -21.579  1.00  0.00    -0.504 OA
ATOM     11  H   UNL     1      43.532  17.269 -20.698  1.00  0.00     0.293 HD
ENDBRANCH   7  10
ENDBRANCH   1   2
BRANCH   1  12
ATOM     12  C   UNL     1      46.537  21.929 -23.000  1.00  0.00     0.164 C 
BRANCH  12  13
ATOM     13  C   UNL     1      47.527  23.027 -22.499  1.00  0.00     0.070 C 
ATOM     14  O   UNL     1      48.643  23.005 -23.109  1.00  0.00    -0.547 OA
ATOM     15  O   UNL     1      47.128  23.780 -21.570  1.00  0.00    -0.547 OA
ENDBRANCH  12  13
BRANCH  12  16
ATOM     16  O   UNL     1      45.185  22.472 -22.975  1.00  0.00    -0.387 OA
ATOM     17  H   UNL     1      44.908  22.266 -22.046  1.00  0.00     0.211 HD
ENDBRANCH  12  16
ENDBRANCH   1  12
TORSDOF 6
ENDMDL
