MODEL 1
REMARK VINA RESULT:    -8.225      0.000      0.000
REMARK INTER + INTRA:         -16.191
REMARK INTER:                 -13.754
REMARK INTRA:                  -2.437
REMARK UNBOUND:                -2.437
REMARK SMILES C[C@@H]1O[C@@H](OC[C@H]2O[C@@H](OCC(O)c3ccc(O)c(O)c3)[C@H](O)[C@@H](O)[C@@H]2O)[C@H](O)[C@H](O)[C@H]1O
REMARK SMILES IDX 7 1 26 2 24 3 22 4 9 5 8 6 6 7 5 8 4 9 2 10 32 11 3 12 30 13
REMARK SMILES IDX 28 14 1 15 33 16 31 18 29 20 27 22 25 24 10 26 11 27 12 28
REMARK SMILES IDX 14 29 21 30 15 31 19 32 16 33 17 34 20 35 18 37 13 39 23 41
REMARK H PARENT 33 17 31 19 29 21 27 23 25 25 20 36 18 38 13 40 23 42
ROOT
ATOM      1  C   UNL     1      49.169  20.257 -22.745  1.00  0.00     0.178 C 
ATOM      2  C   UNL     1      48.266  20.628 -21.559  1.00  0.00     0.177 C 
ATOM      3  C   UNL     1      48.721  21.956 -20.956  1.00  0.00     0.179 C 
ATOM      4  C   UNL     1      48.797  23.029 -22.035  1.00  0.00     0.202 C 
ATOM      5  C   UNL     1      49.689  22.539 -23.191  1.00  0.00     0.282 C 
ATOM      6  O   UNL     1      49.174  21.318 -23.725  1.00  0.00    -0.341 OA
ENDROOT
BRANCH   1   7
ATOM      7  C   UNL     1      48.676  18.963 -23.412  1.00  0.00     0.198 C 
BRANCH   7   8
ATOM      8  O   UNL     1      47.380  18.636 -22.895  1.00  0.00    -0.347 OA
BRANCH   8   9
ATOM      9  C   UNL     1      46.995  17.285 -23.165  1.00  0.00     0.281 C 
ATOM     10  C   UNL     1      45.180  17.941 -24.586  1.00  0.00     0.150 C 
ATOM     11  C   UNL     1      44.127  17.388 -23.612  1.00  0.00     0.174 C 
ATOM     12  O   UNL     1      46.407  17.219 -24.474  1.00  0.00    -0.344 OA
ATOM     13  C   UNL     1      44.683  17.432 -22.182  1.00  0.00     0.179 C 
ATOM     14  C   UNL     1      46.035  16.722 -22.096  1.00  0.00     0.202 C 
ATOM     15  C   UNL     1      44.722  17.830 -26.037  1.00  0.00     0.041 C 
BRANCH  11  16
ATOM     16  O   UNL     1      42.897  18.139 -23.668  1.00  0.00    -0.388 OA
ATOM     17  H   UNL     1      42.494  17.918 -24.530  1.00  0.00     0.211 HD
ENDBRANCH  11  16
BRANCH  13  18
ATOM     18  O   UNL     1      43.764  16.782 -21.285  1.00  0.00    -0.387 OA
ATOM     19  H   UNL     1      43.940  15.824 -21.375  1.00  0.00     0.211 HD
ENDBRANCH  13  18
BRANCH  14  20
ATOM     20  O   UNL     1      45.832  15.308 -22.267  1.00  0.00    -0.385 OA
ATOM     21  H   UNL     1      44.859  15.194 -22.244  1.00  0.00     0.211 HD
ENDBRANCH  14  20
ENDBRANCH   8   9
ENDBRANCH   7   8
ENDBRANCH   1   7
BRANCH   2  22
ATOM     22  O   UNL     1      48.301  19.620 -20.546  1.00  0.00    -0.387 OA
ATOM     23  H   UNL     1      47.720  18.903 -20.876  1.00  0.00     0.211 HD
ENDBRANCH   2  22
BRANCH   3  24
ATOM     24  O   UNL     1      47.798  22.343 -19.927  1.00  0.00    -0.387 OA
ATOM     25  H   UNL     1      47.419  23.193 -20.231  1.00  0.00     0.211 HD
ENDBRANCH   3  24
BRANCH   5  26
ATOM     26  O   UNL     1      49.650  23.572 -24.181  1.00  0.00    -0.347 OA
BRANCH  26  27
ATOM     27  C   UNL     1      48.930  23.238 -25.374  1.00  0.00     0.200 C 
BRANCH  27  28
ATOM     28  C   UNL     1      47.582  23.964 -25.577  1.00  0.00     0.170 C 
BRANCH  28  29
ATOM     29  C   UNL     1      46.301  23.181 -25.356  1.00  0.00    -0.013 A 
ATOM     30  C   UNL     1      46.225  22.332 -24.234  1.00  0.00     0.056 A 
ATOM     31  C   UNL     1      45.200  23.229 -26.227  1.00  0.00     0.010 A 
ATOM     32  C   UNL     1      45.073  21.595 -23.982  1.00  0.00     0.157 A 
ATOM     33  C   UNL     1      44.051  22.469 -25.981  1.00  0.00     0.050 A 
ATOM     34  C   UNL     1      43.997  21.658 -24.858  1.00  0.00     0.157 A 
BRANCH  32  35
ATOM     35  O   UNL     1      44.950  20.814 -22.866  1.00  0.00    -0.504 OA
ATOM     36  H   UNL     1      44.138  21.104 -22.388  1.00  0.00     0.293 HD
ENDBRANCH  32  35
BRANCH  34  37
ATOM     37  O   UNL     1      42.872  20.925 -24.616  1.00  0.00    -0.504 OA
ATOM     38  H   UNL     1      43.204  20.078 -24.258  1.00  0.00     0.293 HD
ENDBRANCH  34  37
ENDBRANCH  28  29
BRANCH  28  39
ATOM     39  O   UNL     1      47.556  24.577 -26.870  1.00  0.00    -0.386 OA
ATOM     40  H   UNL     1      47.567  25.546 -26.714  1.00  0.00     0.211 HD
ENDBRANCH  28  39
ENDBRANCH  27  28
ENDBRANCH  26  27
ENDBRANCH   5  26
BRANCH   4  41
ATOM     41  O   UNL     1      49.308  24.238 -21.450  1.00  0.00    -0.385 OA
ATOM     42  H   UNL     1      50.256  24.257 -21.689  1.00  0.00     0.211 HD
ENDBRANCH   4  41
TORSDOF 16
ENDMDL
MODEL 2
REMARK VINA RESULT:    -8.198      2.739      7.221
REMARK INTER + INTRA:         -16.146
REMARK INTER:                 -14.503
REMARK INTRA:                  -1.643
REMARK UNBOUND:                -2.437
REMARK SMILES C[C@@H]1O[C@@H](OC[C@H]2O[C@@H](OCC(O)c3ccc(O)c(O)c3)[C@H](O)[C@@H](O)[C@@H]2O)[C@H](O)[C@H](O)[C@H]1O
REMARK SMILES IDX 7 1 26 2 24 3 22 4 9 5 8 6 6 7 5 8 4 9 2 10 32 11 3 12 30 13
REMARK SMILES IDX 28 14 1 15 33 16 31 18 29 20 27 22 25 24 10 26 11 27 12 28
REMARK SMILES IDX 14 29 21 30 15 31 19 32 16 33 17 34 20 35 18 37 13 39 23 41
REMARK H PARENT 33 17 31 19 29 21 27 23 25 25 20 36 18 38 13 40 23 42
ROOT
ATOM      1  C   UNL     1      45.184  17.605 -24.940  1.00  0.00     0.178 C 
ATOM      2  C   UNL     1      44.189  17.822 -23.791  1.00  0.00     0.177 C 
ATOM      3  C   UNL     1      44.554  16.921 -22.613  1.00  0.00     0.179 C 
ATOM      4  C   UNL     1      46.011  17.128 -22.218  1.00  0.00     0.202 C 
ATOM      5  C   UNL     1      46.915  16.928 -23.449  1.00  0.00     0.282 C 
ATOM      6  O   UNL     1      46.536  17.833 -24.488  1.00  0.00    -0.341 OA
ENDROOT
BRANCH   1   7
ATOM      7  C   UNL     1      44.878  18.562 -26.104  1.00  0.00     0.198 C 
BRANCH   7   8
ATOM      8  O   UNL     1      44.416  19.810 -25.573  1.00  0.00    -0.347 OA
BRANCH   8   9
ATOM      9  C   UNL     1      44.853  20.938 -26.335  1.00  0.00     0.281 C 
ATOM     10  C   UNL     1      46.642  21.441 -24.821  1.00  0.00     0.150 C 
ATOM     11  C   UNL     1      45.997  22.770 -24.392  1.00  0.00     0.174 C 
ATOM     12  O   UNL     1      46.269  21.102 -26.157  1.00  0.00    -0.344 OA
ATOM     13  C   UNL     1      44.473  22.670 -24.549  1.00  0.00     0.179 C 
ATOM     14  C   UNL     1      44.094  22.229 -25.963  1.00  0.00     0.202 C 
ATOM     15  C   UNL     1      48.164  21.513 -24.782  1.00  0.00     0.041 C 
BRANCH  11  16
ATOM     16  O   UNL     1      46.314  23.104 -23.026  1.00  0.00    -0.388 OA
ATOM     17  H   UNL     1      46.252  22.264 -22.530  1.00  0.00     0.211 HD
ENDBRANCH  11  16
BRANCH  13  18
ATOM     18  O   UNL     1      43.875  23.953 -24.291  1.00  0.00    -0.387 OA
ATOM     19  H   UNL     1      44.564  24.613 -24.504  1.00  0.00     0.211 HD
ENDBRANCH  13  18
BRANCH  14  20
ATOM     20  O   UNL     1      44.393  23.295 -26.882  1.00  0.00    -0.385 OA
ATOM     21  H   UNL     1      44.468  24.093 -26.317  1.00  0.00     0.211 HD
ENDBRANCH  14  20
ENDBRANCH   8   9
ENDBRANCH   7   8
ENDBRANCH   1   7
BRANCH   2  22
ATOM     22  O   UNL     1      42.851  17.535 -24.201  1.00  0.00    -0.387 OA
ATOM     23  H   UNL     1      42.530  16.854 -23.575  1.00  0.00     0.211 HD
ENDBRANCH   2  22
BRANCH   3  24
ATOM     24  O   UNL     1      43.687  17.221 -21.508  1.00  0.00    -0.387 OA
ATOM     25  H   UNL     1      43.504  18.180 -21.581  1.00  0.00     0.211 HD
ENDBRANCH   3  24
BRANCH   5  26
ATOM     26  O   UNL     1      48.247  17.205 -23.006  1.00  0.00    -0.347 OA
BRANCH  26  27
ATOM     27  C   UNL     1      48.581  18.596 -22.931  1.00  0.00     0.200 C 
BRANCH  27  28
ATOM     28  C   UNL     1      49.092  19.097 -21.563  1.00  0.00     0.170 C 
BRANCH  28  29
ATOM     29  C   UNL     1      49.917  18.149 -20.711  1.00  0.00    -0.013 A 
ATOM     30  C   UNL     1      49.244  17.332 -19.782  1.00  0.00     0.056 A 
ATOM     31  C   UNL     1      51.318  18.066 -20.775  1.00  0.00     0.010 A 
ATOM     32  C   UNL     1      49.951  16.443 -18.980  1.00  0.00     0.157 A 
ATOM     33  C   UNL     1      52.027  17.185 -19.950  1.00  0.00     0.050 A 
ATOM     34  C   UNL     1      51.336  16.380 -19.059  1.00  0.00     0.157 A 
BRANCH  32  35
ATOM     35  O   UNL     1      49.316  15.593 -18.116  1.00  0.00    -0.504 OA
ATOM     36  H   UNL     1      49.779  15.648 -17.249  1.00  0.00     0.293 HD
ENDBRANCH  32  35
BRANCH  34  37
ATOM     37  O   UNL     1      52.030  15.515 -18.263  1.00  0.00    -0.504 OA
ATOM     38  H   UNL     1      51.605  14.647 -18.418  1.00  0.00     0.293 HD
ENDBRANCH  34  37
ENDBRANCH  28  29
BRANCH  28  39
ATOM     39  O   UNL     1      47.998  19.607 -20.796  1.00  0.00    -0.386 OA
ATOM     40  H   UNL     1      47.502  20.210 -21.392  1.00  0.00     0.211 HD
ENDBRANCH  28  39
ENDBRANCH  27  28
ENDBRANCH  26  27
ENDBRANCH   5  26
BRANCH   4  41
ATOM     41  O   UNL     1      46.341  16.206 -21.166  1.00  0.00    -0.385 OA
ATOM     42  H   UNL     1      46.866  16.726 -20.525  1.00  0.00     0.211 HD
ENDBRANCH   4  41
TORSDOF 16
ENDMDL
MODEL 3
REMARK VINA RESULT:    -8.168      2.574      4.612
REMARK INTER + INTRA:         -16.097
REMARK INTER:                 -14.471
REMARK INTRA:                  -1.626
REMARK UNBOUND:                -2.437
REMARK SMILES C[C@@H]1O[C@@H](OC[C@H]2O[C@@H](OCC(O)c3ccc(O)c(O)c3)[C@H](O)[C@@H](O)[C@@H]2O)[C@H](O)[C@H](O)[C@H]1O
REMARK SMILES IDX 7 1 26 2 24 3 22 4 9 5 8 6 6 7 5 8 4 9 2 10 32 11 3 12 30 13
REMARK SMILES IDX 28 14 1 15 33 16 31 18 29 20 27 22 25 24 10 26 11 27 12 28
REMARK SMILES IDX 14 29 21 30 15 31 19 32 16 33 17 34 20 35 18 37 13 39 23 41
REMARK H PARENT 33 17 31 19 29 21 27 23 25 25 20 36 18 38 13 40 23 42
ROOT
ATOM      1  C   UNL     1      50.041  21.353 -22.121  1.00  0.00     0.178 C 
ATOM      2  C   UNL     1      48.957  22.035 -21.273  1.00  0.00     0.177 C 
ATOM      3  C   UNL     1      48.315  23.171 -22.067  1.00  0.00     0.179 C 
ATOM      4  C   UNL     1      47.818  22.661 -23.414  1.00  0.00     0.202 C 
ATOM      5  C   UNL     1      48.970  21.961 -24.161  1.00  0.00     0.282 C 
ATOM      6  O   UNL     1      49.486  20.888 -23.370  1.00  0.00    -0.341 OA
ENDROOT
BRANCH   1   7
ATOM      7  C   UNL     1      50.642  20.157 -21.365  1.00  0.00     0.198 C 
BRANCH   7   8
ATOM      8  O   UNL     1      50.125  18.944 -21.925  1.00  0.00    -0.347 OA
BRANCH   8   9
ATOM      9  C   UNL     1      49.138  18.322 -21.098  1.00  0.00     0.281 C 
ATOM     10  C   UNL     1      50.767  17.095 -19.840  1.00  0.00     0.150 C 
ATOM     11  C   UNL     1      50.265  15.744 -20.377  1.00  0.00     0.174 C 
ATOM     12  O   UNL     1      49.710  18.055 -19.808  1.00  0.00    -0.344 OA
ATOM     13  C   UNL     1      49.641  15.948 -21.765  1.00  0.00     0.179 C 
ATOM     14  C   UNL     1      48.566  17.035 -21.730  1.00  0.00     0.202 C 
ATOM     15  C   UNL     1      51.308  16.972 -18.419  1.00  0.00     0.041 C 
BRANCH  11  16
ATOM     16  O   UNL     1      51.329  14.775 -20.471  1.00  0.00    -0.388 OA
ATOM     17  H   UNL     1      51.633  14.629 -19.554  1.00  0.00     0.211 HD
ENDBRANCH  11  16
BRANCH  13  18
ATOM     18  O   UNL     1      49.039  14.720 -22.210  1.00  0.00    -0.387 OA
ATOM     19  H   UNL     1      48.255  14.984 -22.733  1.00  0.00     0.211 HD
ENDBRANCH  13  18
BRANCH  14  20
ATOM     20  O   UNL     1      47.433  16.548 -20.990  1.00  0.00    -0.385 OA
ATOM     21  H   UNL     1      46.903  16.053 -21.648  1.00  0.00     0.211 HD
ENDBRANCH  14  20
ENDBRANCH   8   9
ENDBRANCH   7   8
ENDBRANCH   1   7
BRANCH   2  22
ATOM     22  O   UNL     1      49.501  22.561 -20.061  1.00  0.00    -0.387 OA
ATOM     23  H   UNL     1      49.069  22.054 -19.343  1.00  0.00     0.211 HD
ENDBRANCH   2  22
BRANCH   3  24
ATOM     24  O   UNL     1      47.229  23.718 -21.305  1.00  0.00    -0.387 OA
ATOM     25  H   UNL     1      46.607  22.973 -21.176  1.00  0.00     0.211 HD
ENDBRANCH   3  24
BRANCH   5  26
ATOM     26  O   UNL     1      48.402  21.459 -25.375  1.00  0.00    -0.347 OA
BRANCH  26  27
ATOM     27  C   UNL     1      47.973  20.093 -25.320  1.00  0.00     0.200 C 
BRANCH  27  28
ATOM     28  C   UNL     1      46.460  19.850 -25.503  1.00  0.00     0.170 C 
BRANCH  28  29
ATOM     29  C   UNL     1      45.732  19.020 -24.462  1.00  0.00    -0.013 A 
ATOM     30  C   UNL     1      45.297  19.659 -23.284  1.00  0.00     0.056 A 
ATOM     31  C   UNL     1      45.499  17.640 -24.592  1.00  0.00     0.010 A 
ATOM     32  C   UNL     1      44.623  18.945 -22.300  1.00  0.00     0.157 A 
ATOM     33  C   UNL     1      44.839  16.922 -23.588  1.00  0.00     0.050 A 
ATOM     34  C   UNL     1      44.405  17.582 -22.450  1.00  0.00     0.157 A 
BRANCH  32  35
ATOM     35  O   UNL     1      44.133  19.557 -21.178  1.00  0.00    -0.504 OA
ATOM     36  H   UNL     1      43.357  19.035 -20.870  1.00  0.00     0.293 HD
ENDBRANCH  32  35
BRANCH  34  37
ATOM     37  O   UNL     1      43.753  16.881 -21.478  1.00  0.00    -0.504 OA
ATOM     38  H   UNL     1      44.302  16.083 -21.343  1.00  0.00     0.293 HD
ENDBRANCH  34  37
ENDBRANCH  28  29
BRANCH  28  39
ATOM     39  O   UNL     1      46.212  19.315 -26.807  1.00  0.00    -0.386 OA
ATOM     40  H   UNL     1      46.681  18.454 -26.844  1.00  0.00     0.211 HD
ENDBRANCH  28  39
ENDBRANCH  27  28
ENDBRANCH  26  27
ENDBRANCH   5  26
BRANCH   4  41
ATOM     41  O   UNL     1      47.299  23.770 -24.166  1.00  0.00    -0.385 OA
ATOM     42  H   UNL     1      46.331  23.633 -24.189  1.00  0.00     0.211 HD
ENDBRANCH   4  41
TORSDOF 16
ENDMDL
MODEL 4
REMARK VINA RESULT:    -7.997      1.530      6.250
REMARK INTER + INTRA:         -15.810
REMARK INTER:                 -14.190
REMARK INTRA:                  -1.621
REMARK UNBOUND:                -2.437
REMARK SMILES C[C@@H]1O[C@@H](OC[C@H]2O[C@@H](OCC(O)c3ccc(O)c(O)c3)[C@H](O)[C@@H](O)[C@@H]2O)[C@H](O)[C@H](O)[C@H]1O
REMARK SMILES IDX 7 1 26 2 24 3 22 4 9 5 8 6 6 7 5 8 4 9 2 10 32 11 3 12 30 13
REMARK SMILES IDX 28 14 1 15 33 16 31 18 29 20 27 22 25 24 10 26 11 27 12 28
REMARK SMILES IDX 14 29 21 30 15 31 19 32 16 33 17 34 20 35 18 37 13 39 23 41
REMARK H PARENT 33 17 31 19 29 21 27 23 25 25 20 36 18 38 13 40 23 42
ROOT
ATOM      1  C   UNL     1      45.100  17.736 -24.968  1.00  0.00     0.178 C 
ATOM      2  C   UNL     1      44.192  18.090 -23.782  1.00  0.00     0.177 C 
ATOM      3  C   UNL     1      44.463  17.138 -22.618  1.00  0.00     0.179 C 
ATOM      4  C   UNL     1      45.948  17.127 -22.278  1.00  0.00     0.202 C 
ATOM      5  C   UNL     1      46.767  16.804 -23.542  1.00  0.00     0.282 C 
ATOM      6  O   UNL     1      46.488  17.761 -24.566  1.00  0.00    -0.341 OA
ENDROOT
BRANCH   1   7
ATOM      7  C   UNL     1      44.896  18.734 -26.119  1.00  0.00     0.198 C 
BRANCH   7   8
ATOM      8  O   UNL     1      46.050  19.579 -26.215  1.00  0.00    -0.347 OA
BRANCH   8   9
ATOM      9  C   UNL     1      45.778  20.825 -26.861  1.00  0.00     0.281 C 
ATOM     10  C   UNL     1      46.753  22.113 -25.090  1.00  0.00     0.150 C 
ATOM     11  C   UNL     1      45.400  22.734 -24.704  1.00  0.00     0.174 C 
ATOM     12  O   UNL     1      46.783  21.778 -26.478  1.00  0.00    -0.344 OA
ATOM     13  C   UNL     1      44.270  21.764 -25.079  1.00  0.00     0.179 C 
ATOM     14  C   UNL     1      44.363  21.354 -26.549  1.00  0.00     0.202 C 
ATOM     15  C   UNL     1      47.910  23.073 -24.832  1.00  0.00     0.041 C 
BRANCH  11  16
ATOM     16  O   UNL     1      45.327  23.027 -23.294  1.00  0.00    -0.388 OA
ATOM     17  H   UNL     1      46.142  22.653 -22.906  1.00  0.00     0.211 HD
ENDBRANCH  11  16
BRANCH  13  18
ATOM     18  O   UNL     1      42.997  22.397 -24.857  1.00  0.00    -0.387 OA
ATOM     19  H   UNL     1      42.762  22.824 -25.705  1.00  0.00     0.211 HD
ENDBRANCH  13  18
BRANCH  14  20
ATOM     20  O   UNL     1      44.035  22.488 -27.372  1.00  0.00    -0.385 OA
ATOM     21  H   UNL     1      43.308  22.938 -26.894  1.00  0.00     0.211 HD
ENDBRANCH  14  20
ENDBRANCH   8   9
ENDBRANCH   7   8
ENDBRANCH   1   7
BRANCH   2  22
ATOM     22  O   UNL     1      42.812  18.005 -24.142  1.00  0.00    -0.387 OA
ATOM     23  H   UNL     1      42.806  17.883 -25.114  1.00  0.00     0.211 HD
ENDBRANCH   2  22
BRANCH   3  24
ATOM     24  O   UNL     1      43.691  17.556 -21.482  1.00  0.00    -0.387 OA
ATOM     25  H   UNL     1      42.871  17.023 -21.522  1.00  0.00     0.211 HD
ENDBRANCH   3  24
BRANCH   5  26
ATOM     26  O   UNL     1      48.141  16.880 -23.149  1.00  0.00    -0.347 OA
BRANCH  26  27
ATOM     27  C   UNL     1      48.662  18.209 -23.030  1.00  0.00     0.200 C 
BRANCH  27  28
ATOM     28  C   UNL     1      48.326  18.954 -21.719  1.00  0.00     0.170 C 
BRANCH  28  29
ATOM     29  C   UNL     1      48.821  20.379 -21.553  1.00  0.00    -0.013 A 
ATOM     30  C   UNL     1      47.867  21.414 -21.503  1.00  0.00     0.056 A 
ATOM     31  C   UNL     1      50.181  20.726 -21.482  1.00  0.00     0.010 A 
ATOM     32  C   UNL     1      48.267  22.737 -21.348  1.00  0.00     0.157 A 
ATOM     33  C   UNL     1      50.579  22.061 -21.348  1.00  0.00     0.050 A 
ATOM     34  C   UNL     1      49.617  23.056 -21.282  1.00  0.00     0.157 A 
BRANCH  32  35
ATOM     35  O   UNL     1      47.358  23.753 -21.231  1.00  0.00    -0.504 OA
ATOM     36  H   UNL     1      46.814  23.762 -22.052  1.00  0.00     0.293 HD
ENDBRANCH  32  35
BRANCH  34  37
ATOM     37  O   UNL     1      50.008  24.356 -21.141  1.00  0.00    -0.504 OA
ATOM     38  H   UNL     1      49.565  24.825 -21.876  1.00  0.00     0.293 HD
ENDBRANCH  34  37
ENDBRANCH  28  29
BRANCH  28  39
ATOM     39  O   UNL     1      48.738  18.166 -20.599  1.00  0.00    -0.386 OA
ATOM     40  H   UNL     1      48.010  18.220 -19.943  1.00  0.00     0.211 HD
ENDBRANCH  28  39
ENDBRANCH  27  28
ENDBRANCH  26  27
ENDBRANCH   5  26
BRANCH   4  41
ATOM     41  O   UNL     1      46.178  16.161 -21.239  1.00  0.00    -0.385 OA
ATOM     42  H   UNL     1      46.869  15.565 -21.592  1.00  0.00     0.211 HD
ENDBRANCH   4  41
TORSDOF 16
ENDMDL
MODEL 5
REMARK VINA RESULT:    -7.993      2.570      7.430
REMARK INTER + INTRA:         -15.805
REMARK INTER:                 -13.476
REMARK INTRA:                  -2.329
REMARK UNBOUND:                -2.437
REMARK SMILES C[C@@H]1O[C@@H](OC[C@H]2O[C@@H](OCC(O)c3ccc(O)c(O)c3)[C@H](O)[C@@H](O)[C@@H]2O)[C@H](O)[C@H](O)[C@H]1O
REMARK SMILES IDX 7 1 26 2 24 3 22 4 9 5 8 6 6 7 5 8 4 9 2 10 32 11 3 12 30 13
REMARK SMILES IDX 28 14 1 15 33 16 31 18 29 20 27 22 25 24 10 26 11 27 12 28
REMARK SMILES IDX 14 29 21 30 15 31 19 32 16 33 17 34 20 35 18 37 13 39 23 41
REMARK H PARENT 33 17 31 19 29 21 27 23 25 25 20 36 18 38 13 40 23 42
ROOT
ATOM      1  C   UNL     1      45.191  19.325 -25.750  1.00  0.00     0.178 C 
ATOM      2  C   UNL     1      44.315  20.066 -24.730  1.00  0.00     0.177 C 
ATOM      3  C   UNL     1      43.408  19.073 -24.006  1.00  0.00     0.179 C 
ATOM      4  C   UNL     1      44.234  17.941 -23.407  1.00  0.00     0.202 C 
ATOM      5  C   UNL     1      45.103  17.297 -24.503  1.00  0.00     0.282 C 
ATOM      6  O   UNL     1      45.949  18.281 -25.101  1.00  0.00    -0.341 OA
ENDROOT
BRANCH   1   7
ATOM      7  C   UNL     1      46.165  20.299 -26.432  1.00  0.00     0.198 C 
BRANCH   7   8
ATOM      8  O   UNL     1      46.533  21.321 -25.497  1.00  0.00    -0.347 OA
BRANCH   8   9
ATOM      9  C   UNL     1      47.882  21.200 -25.037  1.00  0.00     0.281 C 
ATOM     10  C   UNL     1      47.254  21.360 -22.729  1.00  0.00     0.150 C 
ATOM     11  C   UNL     1      47.977  22.706 -22.555  1.00  0.00     0.174 C 
ATOM     12  O   UNL     1      47.880  20.573 -23.744  1.00  0.00    -0.344 OA
ATOM     13  C   UNL     1      48.014  23.442 -23.902  1.00  0.00     0.179 C 
ATOM     14  C   UNL     1      48.614  22.557 -24.995  1.00  0.00     0.202 C 
ATOM     15  C   UNL     1      47.274  20.538 -21.445  1.00  0.00     0.041 C 
BRANCH  11  16
ATOM     16  O   UNL     1      47.328  23.541 -21.575  1.00  0.00    -0.388 OA
ATOM     17  H   UNL     1      47.955  24.268 -21.392  1.00  0.00     0.211 HD
ENDBRANCH  11  16
BRANCH  13  18
ATOM     18  O   UNL     1      48.814  24.632 -23.782  1.00  0.00    -0.387 OA
ATOM     19  H   UNL     1      48.654  25.141 -24.601  1.00  0.00     0.211 HD
ENDBRANCH  13  18
BRANCH  14  20
ATOM     20  O   UNL     1      50.019  22.386 -24.739  1.00  0.00    -0.385 OA
ATOM     21  H   UNL     1      50.409  23.271 -24.899  1.00  0.00     0.211 HD
ENDBRANCH  14  20
ENDBRANCH   8   9
ENDBRANCH   7   8
ENDBRANCH   1   7
BRANCH   2  22
ATOM     22  O   UNL     1      43.506  21.059 -25.365  1.00  0.00    -0.387 OA
ATOM     23  H   UNL     1      43.949  21.244 -26.219  1.00  0.00     0.211 HD
ENDBRANCH   2  22
BRANCH   3  24
ATOM     24  O   UNL     1      42.683  19.764 -22.978  1.00  0.00    -0.387 OA
ATOM     25  H   UNL     1      43.051  20.672 -22.973  1.00  0.00     0.211 HD
ENDBRANCH   3  24
BRANCH   5  26
ATOM     26  O   UNL     1      45.888  16.298 -23.844  1.00  0.00    -0.347 OA
BRANCH  26  27
ATOM     27  C   UNL     1      46.864  16.806 -22.927  1.00  0.00     0.200 C 
BRANCH  27  28
ATOM     28  C   UNL     1      48.339  16.664 -23.360  1.00  0.00     0.170 C 
BRANCH  28  29
ATOM     29  C   UNL     1      49.411  16.690 -22.286  1.00  0.00    -0.013 A 
ATOM     30  C   UNL     1      49.941  15.462 -21.843  1.00  0.00     0.056 A 
ATOM     31  C   UNL     1      49.880  17.870 -21.683  1.00  0.00     0.010 A 
ATOM     32  C   UNL     1      50.927  15.430 -20.864  1.00  0.00     0.157 A 
ATOM     33  C   UNL     1      50.857  17.830 -20.682  1.00  0.00     0.050 A 
ATOM     34  C   UNL     1      51.374  16.609 -20.281  1.00  0.00     0.157 A 
BRANCH  32  35
ATOM     35  O   UNL     1      51.504  14.255 -20.464  1.00  0.00    -0.504 OA
ATOM     36  H   UNL     1      50.931  13.865 -19.764  1.00  0.00     0.293 HD
ENDBRANCH  32  35
BRANCH  34  37
ATOM     37  O   UNL     1      52.334  16.575 -19.312  1.00  0.00    -0.504 OA
ATOM     38  H   UNL     1      52.111  17.321 -18.721  1.00  0.00     0.293 HD
ENDBRANCH  34  37
ENDBRANCH  28  29
BRANCH  28  39
ATOM     39  O   UNL     1      48.641  17.634 -24.367  1.00  0.00    -0.386 OA
ATOM     40  H   UNL     1      47.964  18.339 -24.281  1.00  0.00     0.211 HD
ENDBRANCH  28  39
ENDBRANCH  27  28
ENDBRANCH  26  27
ENDBRANCH   5  26
BRANCH   4  41
ATOM     41  O   UNL     1      43.344  16.984 -22.809  1.00  0.00    -0.385 OA
ATOM     42  H   UNL     1      43.077  17.381 -21.956  1.00  0.00     0.211 HD
ENDBRANCH   4  41
TORSDOF 16
ENDMDL
MODEL 6
REMARK VINA RESULT:    -7.977      1.647      6.012
REMARK INTER + INTRA:         -15.778
REMARK INTER:                 -13.492
REMARK INTRA:                  -2.286
REMARK UNBOUND:                -2.437
REMARK SMILES C[C@@H]1O[C@@H](OC[C@H]2O[C@@H](OCC(O)c3ccc(O)c(O)c3)[C@H](O)[C@@H](O)[C@@H]2O)[C@H](O)[C@H](O)[C@H]1O
REMARK SMILES IDX 7 1 26 2 24 3 22 4 9 5 8 6 6 7 5 8 4 9 2 10 32 11 3 12 30 13
REMARK SMILES IDX 28 14 1 15 33 16 31 18 29 20 27 22 25 24 10 26 11 27 12 28
REMARK SMILES IDX 14 29 21 30 15 31 19 32 16 33 17 34 20 35 18 37 13 39 23 41
REMARK H PARENT 33 17 31 19 29 21 27 23 25 25 20 36 18 38 13 40 23 42
ROOT
ATOM      1  C   UNL     1      47.781  18.635 -23.251  1.00  0.00     0.178 C 
ATOM      2  C   UNL     1      48.425  17.241 -23.258  1.00  0.00     0.177 C 
ATOM      3  C   UNL     1      47.752  16.353 -22.213  1.00  0.00     0.179 C 
ATOM      4  C   UNL     1      46.243  16.338 -22.422  1.00  0.00     0.202 C 
ATOM      5  C   UNL     1      45.708  17.782 -22.441  1.00  0.00     0.282 C 
ATOM      6  O   UNL     1      46.356  18.533 -23.469  1.00  0.00    -0.341 OA
ENDROOT
BRANCH   1   7
ATOM      7  C   UNL     1      48.393  19.516 -24.351  1.00  0.00     0.198 C 
BRANCH   7   8
ATOM      8  O   UNL     1      49.270  20.474 -23.747  1.00  0.00    -0.347 OA
BRANCH   8   9
ATOM      9  C   UNL     1      49.121  21.789 -24.289  1.00  0.00     0.281 C 
ATOM     10  C   UNL     1      49.406  22.849 -22.158  1.00  0.00     0.150 C 
ATOM     11  C   UNL     1      47.958  23.368 -22.146  1.00  0.00     0.174 C 
ATOM     12  O   UNL     1      49.886  22.711 -23.496  1.00  0.00    -0.344 OA
ATOM     13  C   UNL     1      47.073  22.425 -22.973  1.00  0.00     0.179 C 
ATOM     14  C   UNL     1      47.644  22.226 -24.377  1.00  0.00     0.202 C 
ATOM     15  C   UNL     1      50.353  23.800 -21.434  1.00  0.00     0.041 C 
BRANCH  11  16
ATOM     16  O   UNL     1      47.432  23.460 -20.806  1.00  0.00    -0.388 OA
ATOM     17  H   UNL     1      46.688  24.091 -20.859  1.00  0.00     0.211 HD
ENDBRANCH  11  16
BRANCH  13  18
ATOM     18  O   UNL     1      45.750  22.981 -23.088  1.00  0.00    -0.387 OA
ATOM     19  H   UNL     1      45.223  22.555 -22.383  1.00  0.00     0.211 HD
ENDBRANCH  13  18
BRANCH  14  20
ATOM     20  O   UNL     1      47.504  23.452 -25.117  1.00  0.00    -0.385 OA
ATOM     21  H   UNL     1      47.930  24.130 -24.553  1.00  0.00     0.211 HD
ENDBRANCH  14  20
ENDBRANCH   8   9
ENDBRANCH   7   8
ENDBRANCH   1   7
BRANCH   2  22
ATOM     22  O   UNL     1      49.824  17.315 -22.976  1.00  0.00    -0.387 OA
ATOM     23  H   UNL     1      49.885  17.671 -22.066  1.00  0.00     0.211 HD
ENDBRANCH   2  22
BRANCH   3  24
ATOM     24  O   UNL     1      48.286  15.024 -22.313  1.00  0.00    -0.387 OA
ATOM     25  H   UNL     1      47.677  14.550 -22.915  1.00  0.00     0.211 HD
ENDBRANCH   3  24
BRANCH   5  26
ATOM     26  O   UNL     1      44.306  17.678 -22.707  1.00  0.00    -0.347 OA
BRANCH  26  27
ATOM     27  C   UNL     1      43.974  17.072 -23.963  1.00  0.00     0.200 C 
BRANCH  27  28
ATOM     28  C   UNL     1      43.109  17.923 -24.918  1.00  0.00     0.170 C 
BRANCH  28  29
ATOM     29  C   UNL     1      43.665  19.249 -25.405  1.00  0.00    -0.013 A 
ATOM     30  C   UNL     1      43.106  20.436 -24.893  1.00  0.00     0.056 A 
ATOM     31  C   UNL     1      44.685  19.357 -26.366  1.00  0.00     0.010 A 
ATOM     32  C   UNL     1      43.581  21.676 -25.304  1.00  0.00     0.157 A 
ATOM     33  C   UNL     1      45.145  20.608 -26.792  1.00  0.00     0.050 A 
ATOM     34  C   UNL     1      44.589  21.758 -26.256  1.00  0.00     0.157 A 
BRANCH  32  35
ATOM     35  O   UNL     1      43.099  22.841 -24.774  1.00  0.00    -0.504 OA
ATOM     36  H   UNL     1      42.842  23.426 -25.523  1.00  0.00     0.293 HD
ENDBRANCH  32  35
BRANCH  34  37
ATOM     37  O   UNL     1      45.046  22.977 -26.666  1.00  0.00    -0.504 OA
ATOM     38  H   UNL     1      45.644  22.774 -27.414  1.00  0.00     0.293 HD
ENDBRANCH  34  37
ENDBRANCH  28  29
BRANCH  28  39
ATOM     39  O   UNL     1      41.814  18.125 -24.344  1.00  0.00    -0.386 OA
ATOM     40  H   UNL     1      41.830  19.018 -23.937  1.00  0.00     0.211 HD
ENDBRANCH  28  39
ENDBRANCH  27  28
ENDBRANCH  26  27
ENDBRANCH   5  26
BRANCH   4  41
ATOM     41  O   UNL     1      45.637  15.565 -21.374  1.00  0.00    -0.385 OA
ATOM     42  H   UNL     1      46.322  15.495 -20.679  1.00  0.00     0.211 HD
ENDBRANCH   4  41
TORSDOF 16
ENDMDL
MODEL 7
REMARK VINA RESULT:    -7.952      2.415      6.104
REMARK INTER + INTRA:         -15.736
REMARK INTER:                 -13.827
REMARK INTRA:                  -1.909
REMARK UNBOUND:                -2.437
REMARK SMILES C[C@@H]1O[C@@H](OC[C@H]2O[C@@H](OCC(O)c3ccc(O)c(O)c3)[C@H](O)[C@@H](O)[C@@H]2O)[C@H](O)[C@H](O)[C@H]1O
REMARK SMILES IDX 7 1 26 2 24 3 22 4 9 5 8 6 6 7 5 8 4 9 2 10 32 11 3 12 30 13
REMARK SMILES IDX 28 14 1 15 33 16 31 18 29 20 27 22 25 24 10 26 11 27 12 28
REMARK SMILES IDX 14 29 21 30 15 31 19 32 16 33 17 34 20 35 18 37 13 39 23 41
REMARK H PARENT 33 17 31 19 29 21 27 23 25 25 20 36 18 38 13 40 23 42
ROOT
ATOM      1  C   UNL     1      50.192  19.014 -20.917  1.00  0.00     0.178 C 
ATOM      2  C   UNL     1      51.192  18.614 -19.822  1.00  0.00     0.177 C 
ATOM      3  C   UNL     1      50.540  17.620 -18.862  1.00  0.00     0.179 C 
ATOM      4  C   UNL     1      49.962  16.440 -19.632  1.00  0.00     0.202 C 
ATOM      5  C   UNL     1      49.009  16.953 -20.728  1.00  0.00     0.282 C 
ATOM      6  O   UNL     1      49.703  17.842 -21.606  1.00  0.00    -0.341 OA
ENDROOT
BRANCH   1   7
ATOM      7  C   UNL     1      50.856  19.952 -21.936  1.00  0.00     0.198 C 
BRANCH   7   8
ATOM      8  O   UNL     1      49.836  20.637 -22.674  1.00  0.00    -0.347 OA
BRANCH   8   9
ATOM      9  C   UNL     1      48.744  21.063 -21.856  1.00  0.00     0.281 C 
ATOM     10  C   UNL     1      47.362  21.599 -23.740  1.00  0.00     0.150 C 
ATOM     11  C   UNL     1      47.378  23.101 -23.412  1.00  0.00     0.174 C 
ATOM     12  O   UNL     1      47.513  20.817 -22.554  1.00  0.00    -0.344 OA
ATOM     13  C   UNL     1      48.675  23.445 -22.665  1.00  0.00     0.179 C 
ATOM     14  C   UNL     1      48.861  22.545 -21.443  1.00  0.00     0.202 C 
ATOM     15  C   UNL     1      46.051  21.177 -24.395  1.00  0.00     0.041 C 
BRANCH  11  16
ATOM     16  O   UNL     1      47.285  23.911 -24.601  1.00  0.00    -0.388 OA
ATOM     17  H   UNL     1      46.791  23.371 -25.248  1.00  0.00     0.211 HD
ENDBRANCH  11  16
BRANCH  13  18
ATOM     18  O   UNL     1      48.632  24.815 -22.227  1.00  0.00    -0.387 OA
ATOM     19  H   UNL     1      49.364  24.909 -21.584  1.00  0.00     0.211 HD
ENDBRANCH  13  18
BRANCH  14  20
ATOM     20  O   UNL     1      47.876  22.892 -20.453  1.00  0.00    -0.385 OA
ATOM     21  H   UNL     1      47.025  22.889 -20.940  1.00  0.00     0.211 HD
ENDBRANCH  14  20
ENDBRANCH   8   9
ENDBRANCH   7   8
ENDBRANCH   1   7
BRANCH   2  22
ATOM     22  O   UNL     1      51.635  19.754 -19.083  1.00  0.00    -0.387 OA
ATOM     23  H   UNL     1      51.269  20.528 -19.560  1.00  0.00     0.211 HD
ENDBRANCH   2  22
BRANCH   3  24
ATOM     24  O   UNL     1      51.523  17.170 -17.917  1.00  0.00    -0.387 OA
ATOM     25  H   UNL     1      52.078  17.956 -17.733  1.00  0.00     0.211 HD
ENDBRANCH   3  24
BRANCH   5  26
ATOM     26  O   UNL     1      48.568  15.792 -21.440  1.00  0.00    -0.347 OA
BRANCH  26  27
ATOM     27  C   UNL     1      48.139  16.036 -22.785  1.00  0.00     0.200 C 
BRANCH  27  28
ATOM     28  C   UNL     1      46.686  15.632 -23.116  1.00  0.00     0.170 C 
BRANCH  28  29
ATOM     29  C   UNL     1      45.634  16.724 -23.189  1.00  0.00    -0.013 A 
ATOM     30  C   UNL     1      45.637  17.720 -22.194  1.00  0.00     0.056 A 
ATOM     31  C   UNL     1      44.635  16.775 -24.177  1.00  0.00     0.010 A 
ATOM     32  C   UNL     1      44.697  18.745 -22.217  1.00  0.00     0.157 A 
ATOM     33  C   UNL     1      43.678  17.797 -24.182  1.00  0.00     0.050 A 
ATOM     34  C   UNL     1      43.718  18.774 -23.201  1.00  0.00     0.157 A 
BRANCH  32  35
ATOM     35  O   UNL     1      44.719  19.760 -21.300  1.00  0.00    -0.504 OA
ATOM     36  H   UNL     1      45.490  20.335 -21.511  1.00  0.00     0.293 HD
ENDBRANCH  32  35
BRANCH  34  37
ATOM     37  O   UNL     1      42.790  19.775 -23.216  1.00  0.00    -0.504 OA
ATOM     38  H   UNL     1      42.297  19.662 -22.379  1.00  0.00     0.293 HD
ENDBRANCH  34  37
ENDBRANCH  28  29
BRANCH  28  39
ATOM     39  O   UNL     1      46.255  14.605 -22.218  1.00  0.00    -0.386 OA
ATOM     40  H   UNL     1      46.938  13.901 -22.258  1.00  0.00     0.211 HD
ENDBRANCH  28  39
ENDBRANCH  27  28
ENDBRANCH  26  27
ENDBRANCH   5  26
BRANCH   4  41
ATOM     41  O   UNL     1      49.285  15.571 -18.710  1.00  0.00    -0.385 OA
ATOM     42  H   UNL     1      48.961  14.825 -19.252  1.00  0.00     0.211 HD
ENDBRANCH   4  41
TORSDOF 16
ENDMDL
MODEL 8
REMARK VINA RESULT:    -7.905      2.771      4.608
REMARK INTER + INTRA:         -15.657
REMARK INTER:                 -13.520
REMARK INTRA:                  -2.137
REMARK UNBOUND:                -2.437
REMARK SMILES C[C@@H]1O[C@@H](OC[C@H]2O[C@@H](OCC(O)c3ccc(O)c(O)c3)[C@H](O)[C@@H](O)[C@@H]2O)[C@H](O)[C@H](O)[C@H]1O
REMARK SMILES IDX 7 1 26 2 24 3 22 4 9 5 8 6 6 7 5 8 4 9 2 10 32 11 3 12 30 13
REMARK SMILES IDX 28 14 1 15 33 16 31 18 29 20 27 22 25 24 10 26 11 27 12 28
REMARK SMILES IDX 14 29 21 30 15 31 19 32 16 33 17 34 20 35 18 37 13 39 23 41
REMARK H PARENT 33 17 31 19 29 21 27 23 25 25 20 36 18 38 13 40 23 42
ROOT
ATOM      1  C   UNL     1      50.807  21.611 -21.982  1.00  0.00     0.178 C 
ATOM      2  C   UNL     1      49.878  21.660 -20.760  1.00  0.00     0.177 C 
ATOM      3  C   UNL     1      48.747  22.655 -21.008  1.00  0.00     0.179 C 
ATOM      4  C   UNL     1      48.033  22.331 -22.315  1.00  0.00     0.202 C 
ATOM      5  C   UNL     1      49.058  22.265 -23.463  1.00  0.00     0.282 C 
ATOM      6  O   UNL     1      50.056  21.285 -23.173  1.00  0.00    -0.341 OA
ENDROOT
BRANCH   1   7
ATOM      7  C   UNL     1      51.906  20.556 -21.781  1.00  0.00     0.198 C 
BRANCH   7   8
ATOM      8  O   UNL     1      51.392  19.495 -20.966  1.00  0.00    -0.347 OA
BRANCH   8   9
ATOM      9  C   UNL     1      51.458  18.217 -21.603  1.00  0.00     0.281 C 
ATOM     10  C   UNL     1      49.248  17.603 -20.905  1.00  0.00     0.150 C 
ATOM     11  C   UNL     1      49.774  16.479 -19.995  1.00  0.00     0.174 C 
ATOM     12  O   UNL     1      50.134  17.826 -22.003  1.00  0.00    -0.344 OA
ATOM     13  C   UNL     1      51.191  16.830 -19.520  1.00  0.00     0.179 C 
ATOM     14  C   UNL     1      52.106  17.143 -20.704  1.00  0.00     0.202 C 
ATOM     15  C   UNL     1      47.882  17.264 -21.490  1.00  0.00     0.041 C 
BRANCH  11  16
ATOM     16  O   UNL     1      48.923  16.276 -18.849  1.00  0.00    -0.388 OA
ATOM     17  H   UNL     1      48.500  15.406 -18.987  1.00  0.00     0.211 HD
ENDBRANCH  11  16
BRANCH  13  18
ATOM     18  O   UNL     1      51.745  15.721 -18.790  1.00  0.00    -0.387 OA
ATOM     19  H   UNL     1      52.682  15.951 -18.631  1.00  0.00     0.211 HD
ENDBRANCH  13  18
BRANCH  14  20
ATOM     20  O   UNL     1      52.356  15.930 -21.435  1.00  0.00    -0.385 OA
ATOM     21  H   UNL     1      53.306  15.743 -21.284  1.00  0.00     0.211 HD
ENDBRANCH  14  20
ENDBRANCH   8   9
ENDBRANCH   7   8
ENDBRANCH   1   7
BRANCH   2  22
ATOM     22  O   UNL     1      50.591  22.047 -19.583  1.00  0.00    -0.387 OA
ATOM     23  H   UNL     1      51.230  22.727 -19.881  1.00  0.00     0.211 HD
ENDBRANCH   2  22
BRANCH   3  24
ATOM     24  O   UNL     1      47.827  22.602 -19.907  1.00  0.00    -0.387 OA
ATOM     25  H   UNL     1      47.634  21.650 -19.782  1.00  0.00     0.211 HD
ENDBRANCH   3  24
BRANCH   5  26
ATOM     26  O   UNL     1      48.316  21.893 -24.629  1.00  0.00    -0.347 OA
BRANCH  26  27
ATOM     27  C   UNL     1      48.045  20.491 -24.749  1.00  0.00     0.200 C 
BRANCH  27  28
ATOM     28  C   UNL     1      46.599  20.112 -25.136  1.00  0.00     0.170 C 
BRANCH  28  29
ATOM     29  C   UNL     1      45.810  19.224 -24.190  1.00  0.00    -0.013 A 
ATOM     30  C   UNL     1      45.255  19.808 -23.034  1.00  0.00     0.056 A 
ATOM     31  C   UNL     1      45.631  17.844 -24.387  1.00  0.00     0.010 A 
ATOM     32  C   UNL     1      44.521  19.040 -22.138  1.00  0.00     0.157 A 
ATOM     33  C   UNL     1      44.909  17.072 -23.470  1.00  0.00     0.050 A 
ATOM     34  C   UNL     1      44.359  17.678 -22.352  1.00  0.00     0.157 A 
BRANCH  32  35
ATOM     35  O   UNL     1      43.917  19.596 -21.043  1.00  0.00    -0.504 OA
ATOM     36  H   UNL     1      43.305  18.922 -20.666  1.00  0.00     0.293 HD
ENDBRANCH  32  35
BRANCH  34  37
ATOM     37  O   UNL     1      43.647  16.924 -21.465  1.00  0.00    -0.504 OA
ATOM     38  H   UNL     1      43.041  16.396 -22.024  1.00  0.00     0.293 HD
ENDBRANCH  34  37
ENDBRANCH  28  29
BRANCH  28  39
ATOM     39  O   UNL     1      46.583  19.551 -26.451  1.00  0.00    -0.386 OA
ATOM     40  H   UNL     1      46.722  18.586 -26.340  1.00  0.00     0.211 HD
ENDBRANCH  28  39
ENDBRANCH  27  28
ENDBRANCH  26  27
ENDBRANCH   5  26
BRANCH   4  41
ATOM     41  O   UNL     1      47.033  23.335 -22.558  1.00  0.00    -0.385 OA
ATOM     42  H   UNL     1      47.460  24.183 -22.327  1.00  0.00     0.211 HD
ENDBRANCH   4  41
TORSDOF 16
ENDMDL
MODEL 9
REMARK VINA RESULT:    -7.859      2.491      4.267
REMARK INTER + INTRA:         -15.579
REMARK INTER:                 -13.913
REMARK INTRA:                  -1.666
REMARK UNBOUND:                -2.437
REMARK SMILES C[C@@H]1O[C@@H](OC[C@H]2O[C@@H](OCC(O)c3ccc(O)c(O)c3)[C@H](O)[C@@H](O)[C@@H]2O)[C@H](O)[C@H](O)[C@H]1O
REMARK SMILES IDX 7 1 26 2 24 3 22 4 9 5 8 6 6 7 5 8 4 9 2 10 32 11 3 12 30 13
REMARK SMILES IDX 28 14 1 15 33 16 31 18 29 20 27 22 25 24 10 26 11 27 12 28
REMARK SMILES IDX 14 29 21 30 15 31 19 32 16 33 17 34 20 35 18 37 13 39 23 41
REMARK H PARENT 33 17 31 19 29 21 27 23 25 25 20 36 18 38 13 40 23 42
ROOT
ATOM      1  C   UNL     1      49.358  16.292 -22.474  1.00  0.00     0.178 C 
ATOM      2  C   UNL     1      49.805  15.420 -21.292  1.00  0.00     0.177 C 
ATOM      3  C   UNL     1      51.161  15.899 -20.777  1.00  0.00     0.179 C 
ATOM      4  C   UNL     1      51.112  17.389 -20.463  1.00  0.00     0.202 C 
ATOM      5  C   UNL     1      50.613  18.163 -21.698  1.00  0.00     0.282 C 
ATOM      6  O   UNL     1      49.325  17.684 -22.090  1.00  0.00    -0.341 OA
ENDROOT
BRANCH   1   7
ATOM      7  C   UNL     1      47.958  15.874 -22.953  1.00  0.00     0.198 C 
BRANCH   7   8
ATOM      8  O   UNL     1      47.092  17.015 -22.917  1.00  0.00    -0.347 OA
BRANCH   8   9
ATOM      9  C   UNL     1      45.709  16.665 -22.830  1.00  0.00     0.281 C 
ATOM     10  C   UNL     1      45.060  18.258 -24.499  1.00  0.00     0.150 C 
ATOM     11  C   UNL     1      44.266  19.100 -23.486  1.00  0.00     0.174 C 
ATOM     12  O   UNL     1      45.090  16.885 -24.108  1.00  0.00    -0.344 OA
ATOM     13  C   UNL     1      44.875  18.920 -22.088  1.00  0.00     0.179 C 
ATOM     14  C   UNL     1      44.973  17.440 -21.717  1.00  0.00     0.202 C 
ATOM     15  C   UNL     1      44.440  18.317 -25.891  1.00  0.00     0.041 C 
BRANCH  11  16
ATOM     16  O   UNL     1      44.271  20.500 -23.831  1.00  0.00    -0.388 OA
ATOM     17  H   UNL     1      44.641  20.960 -23.053  1.00  0.00     0.211 HD
ENDBRANCH  11  16
BRANCH  13  18
ATOM     18  O   UNL     1      44.053  19.586 -21.113  1.00  0.00    -0.387 OA
ATOM     19  H   UNL     1      43.678  18.875 -20.555  1.00  0.00     0.211 HD
ENDBRANCH  13  18
BRANCH  14  20
ATOM     20  O   UNL     1      43.648  16.922 -21.506  1.00  0.00    -0.385 OA
ATOM     21  H   UNL     1      43.766  15.950 -21.474  1.00  0.00     0.211 HD
ENDBRANCH  14  20
ENDBRANCH   8   9
ENDBRANCH   7   8
ENDBRANCH   1   7
BRANCH   2  22
ATOM     22  O   UNL     1      49.908  14.046 -21.671  1.00  0.00    -0.387 OA
ATOM     23  H   UNL     1      50.858  13.903 -21.864  1.00  0.00     0.211 HD
ENDBRANCH   2  22
BRANCH   3  24
ATOM     24  O   UNL     1      51.507  15.150 -19.603  1.00  0.00    -0.387 OA
ATOM     25  H   UNL     1      51.580  14.221 -19.906  1.00  0.00     0.211 HD
ENDBRANCH   3  24
BRANCH   5  26
ATOM     26  O   UNL     1      50.535  19.535 -21.296  1.00  0.00    -0.347 OA
BRANCH  26  27
ATOM     27  C   UNL     1      51.471  20.406 -21.942  1.00  0.00     0.200 C 
BRANCH  27  28
ATOM     28  C   UNL     1      50.973  21.101 -23.229  1.00  0.00     0.170 C 
BRANCH  28  29
ATOM     29  C   UNL     1      49.535  21.584 -23.276  1.00  0.00    -0.013 A 
ATOM     30  C   UNL     1      49.098  22.477 -22.277  1.00  0.00     0.056 A 
ATOM     31  C   UNL     1      48.604  21.163 -24.241  1.00  0.00     0.010 A 
ATOM     32  C   UNL     1      47.792  22.952 -22.276  1.00  0.00     0.157 A 
ATOM     33  C   UNL     1      47.285  21.628 -24.223  1.00  0.00     0.050 A 
ATOM     34  C   UNL     1      46.890  22.520 -23.240  1.00  0.00     0.157 A 
BRANCH  32  35
ATOM     35  O   UNL     1      47.362  23.869 -21.356  1.00  0.00    -0.504 OA
ATOM     36  H   UNL     1      48.154  24.352 -21.025  1.00  0.00     0.293 HD
ENDBRANCH  32  35
BRANCH  34  37
ATOM     37  O   UNL     1      45.604  22.980 -23.231  1.00  0.00    -0.504 OA
ATOM     38  H   UNL     1      45.332  22.962 -24.170  1.00  0.00     0.293 HD
ENDBRANCH  34  37
ENDBRANCH  28  29
BRANCH  28  39
ATOM     39  O   UNL     1      51.240  20.268 -24.360  1.00  0.00    -0.386 OA
ATOM     40  H   UNL     1      50.739  19.436 -24.213  1.00  0.00     0.211 HD
ENDBRANCH  28  39
ENDBRANCH  27  28
ENDBRANCH  26  27
ENDBRANCH   5  26
BRANCH   4  41
ATOM     41  O   UNL     1      52.423  17.822 -20.064  1.00  0.00    -0.385 OA
ATOM     42  H   UNL     1      52.573  18.661 -20.543  1.00  0.00     0.211 HD
ENDBRANCH   4  41
TORSDOF 16
ENDMDL
