REMARK SMILES CCC(CC)O[C@@H]1C=C(C(=O)O)C[C@H](N)[C@H]1NC(C)=O
REMARK SMILES IDX 9 1 13 2 14 3 16 4 7 5 8 6 10 7 11 8 12 9 15 11 6 14 3 15
REMARK SMILES IDX 4 16 5 17 2 18 1 19 17 20 18 21 20 22 19 24
REMARK H PARENT 12 10 15 12 15 13 17 23
ROOT
ATOM      1  C   UNL     1      47.358  21.710 -21.844  1.00  0.00     0.037 C 
ATOM      2  C   UNL     1      47.302  20.289 -21.310  1.00  0.00     0.064 C 
ATOM      3  C   UNL     1      46.084  19.561 -21.876  1.00  0.00     0.081 C 
ATOM      4  C   UNL     1      46.013  19.735 -23.397  1.00  0.00     0.132 C 
ATOM      5  C   UNL     1      45.867  21.217 -23.753  1.00  0.00     0.166 C 
ATOM      6  C   UNL     1      47.015  21.968 -23.120  1.00  0.00     0.018 C 
ENDROOT
BRANCH   1   7
ATOM      7  C   UNL     1      47.763  22.814 -20.977  1.00  0.00     0.331 C 
ATOM      8  O   UNL     1      47.723  23.977 -21.435  1.00  0.00    -0.247 OA
BRANCH   7   9
ATOM      9  O   UNL     1      48.116  22.569 -19.801  1.00  0.00    -0.478 OA
ATOM     10  H   UNL     1      48.135  21.635 -19.474  1.00  0.00     0.297 HD
ENDBRANCH   7   9
ENDBRANCH   1   7
BRANCH   3  11
ATOM     11  N   UNL     1      46.163  18.161 -21.498  1.00  0.00    -0.326 NA
ATOM     12  H   UNL     1      46.167  18.082 -20.471  1.00  0.00     0.119 HD
ATOM     13  H   UNL     1      45.349  17.657 -21.877  1.00  0.00     0.119 HD
ENDBRANCH   3  11
BRANCH   5  14
ATOM     14  O   UNL     1      45.921  21.451 -25.161  1.00  0.00    -0.369 OA
BRANCH  14  15
ATOM     15  C   UNL     1      44.649  21.714 -25.770  1.00  0.00     0.118 C 
BRANCH  15  16
ATOM     16  C   UNL     1      43.997  23.018 -25.275  1.00  0.00     0.028 C 
ATOM     17  C   UNL     1      44.681  24.280 -25.749  1.00  0.00     0.006 C 
ENDBRANCH  15  16
BRANCH  15  18
ATOM     18  C   UNL     1      44.848  21.684 -27.284  1.00  0.00     0.028 C 
ATOM     19  C   UNL     1      45.235  20.295 -27.751  1.00  0.00     0.006 C 
ENDBRANCH  15  18
ENDBRANCH  14  15
ENDBRANCH   5  14
BRANCH   4  20
ATOM     20  N   UNL     1      44.898  18.981 -23.932  1.00  0.00    -0.349 N 
ATOM     21  C   UNL     1      45.045  17.911 -24.707  1.00  0.00     0.217 C 
ATOM     22  O   UNL     1      46.135  17.457 -25.023  1.00  0.00    -0.275 OA
ATOM     23  H   UNL     1      43.943  19.290 -23.700  1.00  0.00     0.163 HD
ATOM     24  C   UNL     1      43.759  17.289 -25.162  1.00  0.00     0.114 C 
ENDBRANCH   4  20
TORSDOF 8
