MODEL 1
REMARK VINA RESULT:    -6.440      0.000      0.000
REMARK INTER + INTRA:          -9.838
REMARK INTER:                  -9.075
REMARK INTRA:                  -0.763
REMARK UNBOUND:                -0.763
REMARK SMILES CCC(CC)O[C@@H]1C=C(C(=O)O)C[C@H](N)[C@H]1NC(C)=O
REMARK SMILES IDX 9 1 13 2 14 3 16 4 7 5 8 6 10 7 11 8 12 9 15 11 6 14 3 15
REMARK SMILES IDX 4 16 5 17 2 18 1 19 17 20 18 21 20 22 19 24
REMARK H PARENT 12 10 15 12 15 13 17 23
ROOT
ATOM      1  C   UNL     1      45.000  18.778 -23.271  1.00  0.00     0.037 C 
ATOM      2  C   UNL     1      45.429  19.146 -21.861  1.00  0.00     0.064 C 
ATOM      3  C   UNL     1      46.742  19.927 -21.897  1.00  0.00     0.081 C 
ATOM      4  C   UNL     1      46.662  21.066 -22.919  1.00  0.00     0.132 C 
ATOM      5  C   UNL     1      46.427  20.501 -24.322  1.00  0.00     0.166 C 
ATOM      6  C   UNL     1      45.181  19.647 -24.283  1.00  0.00     0.018 C 
ENDROOT
BRANCH   1   7
ATOM      7  C   UNL     1      44.407  17.472 -23.550  1.00  0.00     0.331 C 
ATOM      8  O   UNL     1      44.928  16.758 -24.435  1.00  0.00    -0.247 OA
BRANCH   7   9
ATOM      9  O   UNL     1      43.415  17.097 -22.885  1.00  0.00    -0.478 OA
ATOM     10  H   UNL     1      42.524  17.489 -23.061  1.00  0.00     0.297 HD
ENDBRANCH   7   9
ENDBRANCH   1   7
BRANCH   3  11
ATOM     11  N   UNL     1      47.024  20.422 -20.561  1.00  0.00    -0.326 NA
ATOM     12  H   UNL     1      46.138  20.610 -20.070  1.00  0.00     0.119 HD
ATOM     13  H   UNL     1      47.560  19.714 -20.039  1.00  0.00     0.119 HD
ENDBRANCH   3  11
BRANCH   5  14
ATOM     14  O   UNL     1      46.219  21.524 -25.298  1.00  0.00    -0.369 OA
BRANCH  14  15
ATOM     15  C   UNL     1      44.861  21.661 -25.737  1.00  0.00     0.118 C 
BRANCH  15  16
ATOM     16  C   UNL     1      44.129  22.848 -25.085  1.00  0.00     0.028 C 
ATOM     17  C   UNL     1      44.443  24.193 -25.700  1.00  0.00     0.006 C 
ENDBRANCH  15  16
BRANCH  15  18
ATOM     18  C   UNL     1      44.875  21.734 -27.263  1.00  0.00     0.028 C 
ATOM     19  C   UNL     1      45.286  20.405 -27.864  1.00  0.00     0.006 C 
ENDBRANCH  15  18
ENDBRANCH  14  15
ENDBRANCH   5  14
BRANCH   4  20
ATOM     20  N   UNL     1      47.883  21.844 -22.892  1.00  0.00    -0.349 N 
ATOM     21  C   UNL     1      47.999  22.999 -22.243  1.00  0.00     0.217 C 
ATOM     22  O   UNL     1      47.090  23.498 -21.596  1.00  0.00    -0.275 OA
ATOM     23  H   UNL     1      48.703  21.485 -23.402  1.00  0.00     0.163 HD
ATOM     24  C   UNL     1      49.347  23.646 -22.357  1.00  0.00     0.114 C 
ENDBRANCH   4  20
TORSDOF 8
ENDMDL
MODEL 2
REMARK VINA RESULT:    -6.438      1.697      4.523
REMARK INTER + INTRA:          -9.836
REMARK INTER:                  -9.002
REMARK INTRA:                  -0.834
REMARK UNBOUND:                -0.763
REMARK SMILES CCC(CC)O[C@@H]1C=C(C(=O)O)C[C@H](N)[C@H]1NC(C)=O
REMARK SMILES IDX 9 1 13 2 14 3 16 4 7 5 8 6 10 7 11 8 12 9 15 11 6 14 3 15
REMARK SMILES IDX 4 16 5 17 2 18 1 19 17 20 18 21 20 22 19 24
REMARK H PARENT 12 10 15 12 15 13 17 23
ROOT
ATOM      1  C   UNL     1      47.354  21.542 -22.070  1.00  0.00     0.037 C 
ATOM      2  C   UNL     1      47.230  20.143 -21.490  1.00  0.00     0.064 C 
ATOM      3  C   UNL     1      45.954  19.474 -21.997  1.00  0.00     0.081 C 
ATOM      4  C   UNL     1      45.847  19.606 -23.521  1.00  0.00     0.132 C 
ATOM      5  C   UNL     1      45.779  21.083 -23.919  1.00  0.00     0.166 C 
ATOM      6  C   UNL     1      46.988  21.782 -23.343  1.00  0.00     0.018 C 
ENDROOT
BRANCH   1   7
ATOM      7  C   UNL     1      47.851  22.644 -21.251  1.00  0.00     0.331 C 
ATOM      8  O   UNL     1      47.397  23.791 -21.456  1.00  0.00    -0.247 OA
BRANCH   7   9
ATOM      9  O   UNL     1      48.696  22.409 -20.357  1.00  0.00    -0.478 OA
ATOM     10  H   UNL     1      49.399  21.728 -20.507  1.00  0.00     0.297 HD
ENDBRANCH   7   9
ENDBRANCH   1   7
BRANCH   3  11
ATOM     11  N   UNL     1      45.961  18.084 -21.578  1.00  0.00    -0.326 NA
ATOM     12  H   UNL     1      45.159  17.593 -22.000  1.00  0.00     0.119 HD
ATOM     13  H   UNL     1      46.836  17.637 -21.885  1.00  0.00     0.119 HD
ENDBRANCH   3  11
BRANCH   5  14
ATOM     14  O   UNL     1      45.803  21.271 -25.335  1.00  0.00    -0.369 OA
BRANCH  14  15
ATOM     15  C   UNL     1      44.543  21.646 -25.908  1.00  0.00     0.118 C 
BRANCH  15  16
ATOM     16  C   UNL     1      43.875  22.830 -25.184  1.00  0.00     0.028 C 
ATOM     17  C   UNL     1      44.378  24.190 -25.611  1.00  0.00     0.006 C 
ENDBRANCH  15  16
BRANCH  15  18
ATOM     18  C   UNL     1      44.772  21.908 -27.395  1.00  0.00     0.028 C 
ATOM     19  C   UNL     1      45.180  20.636 -28.111  1.00  0.00     0.006 C 
ENDBRANCH  15  18
ENDBRANCH  14  15
ENDBRANCH   5  14
BRANCH   4  20
ATOM     20  N   UNL     1      44.673  18.906 -23.999  1.00  0.00    -0.349 N 
ATOM     21  C   UNL     1      44.697  18.051 -25.017  1.00  0.00     0.217 C 
ATOM     22  O   UNL     1      45.716  17.767 -25.629  1.00  0.00    -0.275 OA
ATOM     23  H   UNL     1      43.774  19.079 -23.526  1.00  0.00     0.163 HD
ATOM     24  C   UNL     1      43.367  17.448 -25.356  1.00  0.00     0.114 C 
ENDBRANCH   4  20
TORSDOF 8
ENDMDL
MODEL 3
REMARK VINA RESULT:    -6.375      3.001      4.717
REMARK INTER + INTRA:          -9.746
REMARK INTER:                  -8.714
REMARK INTRA:                  -1.033
REMARK UNBOUND:                -0.763
REMARK SMILES CCC(CC)O[C@@H]1C=C(C(=O)O)C[C@H](N)[C@H]1NC(C)=O
REMARK SMILES IDX 9 1 13 2 14 3 16 4 7 5 8 6 10 7 11 8 12 9 15 11 6 14 3 15
REMARK SMILES IDX 4 16 5 17 2 18 1 19 17 20 18 21 20 22 19 24
REMARK H PARENT 12 10 15 12 15 13 17 23
ROOT
ATOM      1  C   UNL     1      47.402  16.815 -22.492  1.00  0.00     0.037 C 
ATOM      2  C   UNL     1      46.110  16.369 -21.829  1.00  0.00     0.064 C 
ATOM      3  C   UNL     1      45.049  17.460 -21.955  1.00  0.00     0.081 C 
ATOM      4  C   UNL     1      44.952  17.950 -23.404  1.00  0.00     0.132 C 
ATOM      5  C   UNL     1      46.287  18.556 -23.847  1.00  0.00     0.166 C 
ATOM      6  C   UNL     1      47.366  17.519 -23.639  1.00  0.00     0.018 C 
ENDROOT
BRANCH   1   7
ATOM      7  C   UNL     1      48.694  16.504 -21.886  1.00  0.00     0.331 C 
ATOM      8  O   UNL     1      48.740  16.299 -20.653  1.00  0.00    -0.247 OA
BRANCH   7   9
ATOM      9  O   UNL     1      49.709  16.431 -22.615  1.00  0.00    -0.478 OA
ATOM     10  H   UNL     1      49.948  17.187 -23.209  1.00  0.00     0.297 HD
ENDBRANCH   7   9
ENDBRANCH   1   7
BRANCH   3  11
ATOM     11  N   UNL     1      43.782  16.932 -21.481  1.00  0.00    -0.326 NA
ATOM     12  H   UNL     1      43.756  15.913 -21.630  1.00  0.00     0.119 HD
ATOM     13  H   UNL     1      43.681  17.134 -20.476  1.00  0.00     0.119 HD
ENDBRANCH   3  11
BRANCH   5  14
ATOM     14  O   UNL     1      46.294  18.917 -25.229  1.00  0.00    -0.369 OA
BRANCH  14  15
ATOM     15  C   UNL     1      46.480  20.317 -25.478  1.00  0.00     0.118 C 
BRANCH  15  16
ATOM     16  C   UNL     1      45.433  20.907 -26.440  1.00  0.00     0.028 C 
ATOM     17  C   UNL     1      45.160  20.062 -27.663  1.00  0.00     0.006 C 
ENDBRANCH  15  16
BRANCH  15  18
ATOM     18  C   UNL     1      46.512  21.025 -24.125  1.00  0.00     0.028 C 
ATOM     19  C   UNL     1      45.516  22.167 -24.088  1.00  0.00     0.006 C 
ENDBRANCH  15  18
ENDBRANCH  14  15
ENDBRANCH   5  14
BRANCH   4  20
ATOM     20  N   UNL     1      43.894  18.931 -23.528  1.00  0.00    -0.349 N 
ATOM     21  C   UNL     1      42.960  18.882 -24.472  1.00  0.00     0.217 C 
ATOM     22  O   UNL     1      42.901  17.995 -25.311  1.00  0.00    -0.275 OA
ATOM     23  H   UNL     1      43.863  19.705 -22.849  1.00  0.00     0.163 HD
ATOM     24  C   UNL     1      41.967  20.004 -24.426  1.00  0.00     0.114 C 
ENDBRANCH   4  20
TORSDOF 8
ENDMDL
MODEL 4
REMARK VINA RESULT:    -6.242      3.248      4.671
REMARK INTER + INTRA:          -9.560
REMARK INTER:                  -8.850
REMARK INTRA:                  -0.710
REMARK UNBOUND:                -0.763
REMARK SMILES CCC(CC)O[C@@H]1C=C(C(=O)O)C[C@H](N)[C@H]1NC(C)=O
REMARK SMILES IDX 9 1 13 2 14 3 16 4 7 5 8 6 10 7 11 8 12 9 15 11 6 14 3 15
REMARK SMILES IDX 4 16 5 17 2 18 1 19 17 20 18 21 20 22 19 24
REMARK H PARENT 12 10 15 12 15 13 17 23
ROOT
ATOM      1  C   UNL     1      49.272  16.645 -21.513  1.00  0.00     0.037 C 
ATOM      2  C   UNL     1      49.977  17.647 -20.616  1.00  0.00     0.064 C 
ATOM      3  C   UNL     1      49.889  19.048 -21.218  1.00  0.00     0.081 C 
ATOM      4  C   UNL     1      48.445  19.370 -21.618  1.00  0.00     0.132 C 
ATOM      5  C   UNL     1      47.959  18.383 -22.683  1.00  0.00     0.166 C 
ATOM      6  C   UNL     1      48.129  16.984 -22.139  1.00  0.00     0.018 C 
ENDROOT
BRANCH   1   7
ATOM      7  C   UNL     1      49.834  15.314 -21.726  1.00  0.00     0.331 C 
ATOM      8  O   UNL     1      49.050  14.362 -21.932  1.00  0.00    -0.247 OA
BRANCH   7   9
ATOM      9  O   UNL     1      51.078  15.168 -21.717  1.00  0.00    -0.478 OA
ATOM     10  H   UNL     1      51.470  14.261 -21.776  1.00  0.00     0.297 HD
ENDBRANCH   7   9
ENDBRANCH   1   7
BRANCH   3  11
ATOM     11  N   UNL     1      50.404  20.002 -20.252  1.00  0.00    -0.326 NA
ATOM     12  H   UNL     1      51.295  19.656 -19.869  1.00  0.00     0.119 HD
ATOM     13  H   UNL     1      50.559  20.909 -20.714  1.00  0.00     0.119 HD
ENDBRANCH   3  11
BRANCH   5  14
ATOM     14  O   UNL     1      46.578  18.557 -23.004  1.00  0.00    -0.369 OA
BRANCH  14  15
ATOM     15  C   UNL     1      45.778  17.377 -22.851  1.00  0.00     0.118 C 
BRANCH  15  16
ATOM     16  C   UNL     1      44.593  17.568 -21.887  1.00  0.00     0.028 C 
ATOM     17  C   UNL     1      44.342  19.002 -21.478  1.00  0.00     0.006 C 
ENDBRANCH  15  16
BRANCH  15  18
ATOM     18  C   UNL     1      45.345  16.929 -24.246  1.00  0.00     0.028 C 
ATOM     19  C   UNL     1      43.840  17.017 -24.399  1.00  0.00     0.006 C 
ENDBRANCH  15  18
ENDBRANCH  14  15
ENDBRANCH   5  14
BRANCH   4  20
ATOM     20  N   UNL     1      48.359  20.727 -22.120  1.00  0.00    -0.349 N 
ATOM     21  C   UNL     1      47.949  21.753 -21.381  1.00  0.00     0.217 C 
ATOM     22  O   UNL     1      47.624  21.647 -20.208  1.00  0.00    -0.275 OA
ATOM     23  H   UNL     1      48.629  20.904 -23.098  1.00  0.00     0.163 HD
ATOM     24  C   UNL     1      47.923  23.068 -22.101  1.00  0.00     0.114 C 
ENDBRANCH   4  20
TORSDOF 8
ENDMDL
MODEL 5
REMARK VINA RESULT:    -6.123      2.460      5.000
REMARK INTER + INTRA:          -9.392
REMARK INTER:                  -8.378
REMARK INTRA:                  -1.014
REMARK UNBOUND:                -0.763
REMARK SMILES CCC(CC)O[C@@H]1C=C(C(=O)O)C[C@H](N)[C@H]1NC(C)=O
REMARK SMILES IDX 9 1 13 2 14 3 16 4 7 5 8 6 10 7 11 8 12 9 15 11 6 14 3 15
REMARK SMILES IDX 4 16 5 17 2 18 1 19 17 20 18 21 20 22 19 24
REMARK H PARENT 12 10 15 12 15 13 17 23
ROOT
ATOM      1  C   UNL     1      47.776  21.673 -22.869  1.00  0.00     0.037 C 
ATOM      2  C   UNL     1      48.441  20.907 -21.739  1.00  0.00     0.064 C 
ATOM      3  C   UNL     1      47.733  19.571 -21.520  1.00  0.00     0.081 C 
ATOM      4  C   UNL     1      47.556  18.832 -22.851  1.00  0.00     0.132 C 
ATOM      5  C   UNL     1      46.688  19.659 -23.803  1.00  0.00     0.166 C 
ATOM      6  C   UNL     1      47.325  21.021 -23.957  1.00  0.00     0.018 C 
ENDROOT
BRANCH   1   7
ATOM      7  C   UNL     1      47.597  23.121 -22.781  1.00  0.00     0.331 C 
ATOM      8  O   UNL     1      47.725  23.802 -23.822  1.00  0.00    -0.247 OA
BRANCH   7   9
ATOM      9  O   UNL     1      47.302  23.633 -21.677  1.00  0.00    -0.478 OA
ATOM     10  H   UNL     1      46.731  23.138 -21.038  1.00  0.00     0.297 HD
ENDBRANCH   7   9
ENDBRANCH   1   7
BRANCH   3  11
ATOM     11  N   UNL     1      48.502  18.788 -20.568  1.00  0.00    -0.326 NA
ATOM     12  H   UNL     1      48.674  17.850 -20.955  1.00  0.00     0.119 HD
ATOM     13  H   UNL     1      49.402  19.255 -20.389  1.00  0.00     0.119 HD
ENDBRANCH   3  11
BRANCH   5  14
ATOM     14  O   UNL     1      46.592  19.077 -25.104  1.00  0.00    -0.369 OA
BRANCH  14  15
ATOM     15  C   UNL     1      45.262  19.034 -25.640  1.00  0.00     0.118 C 
BRANCH  15  16
ATOM     16  C   UNL     1      45.172  19.566 -27.082  1.00  0.00     0.028 C 
ATOM     17  C   UNL     1      46.306  20.481 -27.485  1.00  0.00     0.006 C 
ENDBRANCH  15  16
BRANCH  15  18
ATOM     18  C   UNL     1      44.755  17.600 -25.501  1.00  0.00     0.028 C 
ATOM     19  C   UNL     1      43.480  17.554 -24.683  1.00  0.00     0.006 C 
ENDBRANCH  15  18
ENDBRANCH  14  15
ENDBRANCH   5  14
BRANCH   4  20
ATOM     20  N   UNL     1      46.951  17.536 -22.623  1.00  0.00    -0.349 N 
ATOM     21  C   UNL     1      47.396  16.414 -23.180  1.00  0.00     0.217 C 
ATOM     22  O   UNL     1      48.368  16.373 -23.920  1.00  0.00    -0.275 OA
ATOM     23  H   UNL     1      46.134  17.481 -21.998  1.00  0.00     0.163 HD
ATOM     24  C   UNL     1      46.615  15.186 -22.820  1.00  0.00     0.114 C 
ENDBRANCH   4  20
TORSDOF 8
ENDMDL
MODEL 6
REMARK VINA RESULT:    -6.094      1.112      1.870
REMARK INTER + INTRA:          -9.351
REMARK INTER:                  -8.348
REMARK INTRA:                  -1.003
REMARK UNBOUND:                -0.763
REMARK SMILES CCC(CC)O[C@@H]1C=C(C(=O)O)C[C@H](N)[C@H]1NC(C)=O
REMARK SMILES IDX 9 1 13 2 14 3 16 4 7 5 8 6 10 7 11 8 12 9 15 11 6 14 3 15
REMARK SMILES IDX 4 16 5 17 2 18 1 19 17 20 18 21 20 22 19 24
REMARK H PARENT 12 10 15 12 15 13 17 23
ROOT
ATOM      1  C   UNL     1      44.881  18.703 -23.394  1.00  0.00     0.037 C 
ATOM      2  C   UNL     1      45.274  19.081 -21.976  1.00  0.00     0.064 C 
ATOM      3  C   UNL     1      46.608  19.825 -21.980  1.00  0.00     0.081 C 
ATOM      4  C   UNL     1      46.592  20.951 -23.020  1.00  0.00     0.132 C 
ATOM      5  C   UNL     1      46.387  20.372 -24.422  1.00  0.00     0.166 C 
ATOM      6  C   UNL     1      45.118  19.552 -24.412  1.00  0.00     0.018 C 
ENDROOT
BRANCH   1   7
ATOM      7  C   UNL     1      44.262  17.410 -23.674  1.00  0.00     0.331 C 
ATOM      8  O   UNL     1      44.746  16.702 -24.584  1.00  0.00    -0.247 OA
BRANCH   7   9
ATOM      9  O   UNL     1      43.284  17.039 -22.986  1.00  0.00    -0.478 OA
ATOM     10  H   UNL     1      42.630  17.705 -22.655  1.00  0.00     0.297 HD
ENDBRANCH   7   9
ENDBRANCH   1   7
BRANCH   3  11
ATOM     11  N   UNL     1      46.860  20.332 -20.642  1.00  0.00    -0.326 NA
ATOM     12  H   UNL     1      46.821  19.555 -19.967  1.00  0.00     0.119 HD
ATOM     13  H   UNL     1      47.793  20.766 -20.611  1.00  0.00     0.119 HD
ENDBRANCH   3  11
BRANCH   5  14
ATOM     14  O   UNL     1      46.240  21.385 -25.418  1.00  0.00    -0.369 OA
BRANCH  14  15
ATOM     15  C   UNL     1      47.175  21.295 -26.502  1.00  0.00     0.118 C 
BRANCH  15  16
ATOM     16  C   UNL     1      46.671  20.425 -27.668  1.00  0.00     0.028 C 
ATOM     17  C   UNL     1      45.238  20.688 -28.073  1.00  0.00     0.006 C 
ENDBRANCH  15  16
BRANCH  15  18
ATOM     18  C   UNL     1      47.524  22.719 -26.929  1.00  0.00     0.028 C 
ATOM     19  C   UNL     1      46.991  23.729 -25.932  1.00  0.00     0.006 C 
ENDBRANCH  15  18
ENDBRANCH  14  15
ENDBRANCH   5  14
BRANCH   4  20
ATOM     20  N   UNL     1      47.833  21.696 -22.964  1.00  0.00    -0.349 N 
ATOM     21  C   UNL     1      47.949  22.878 -22.366  1.00  0.00     0.217 C 
ATOM     22  O   UNL     1      47.022  23.433 -21.794  1.00  0.00    -0.275 OA
ATOM     23  H   UNL     1      48.668  21.290 -23.410  1.00  0.00     0.163 HD
ATOM     24  C   UNL     1      49.319  23.482 -22.437  1.00  0.00     0.114 C 
ENDBRANCH   4  20
TORSDOF 8
ENDMDL
MODEL 7
REMARK VINA RESULT:    -6.014      1.776      2.336
REMARK INTER + INTRA:          -9.237
REMARK INTER:                  -8.253
REMARK INTRA:                  -0.984
REMARK UNBOUND:                -0.763
REMARK SMILES CCC(CC)O[C@@H]1C=C(C(=O)O)C[C@H](N)[C@H]1NC(C)=O
REMARK SMILES IDX 9 1 13 2 14 3 16 4 7 5 8 6 10 7 11 8 12 9 15 11 6 14 3 15
REMARK SMILES IDX 4 16 5 17 2 18 1 19 17 20 18 21 20 22 19 24
REMARK H PARENT 12 10 15 12 15 13 17 23
ROOT
ATOM      1  C   UNL     1      44.366  18.262 -23.415  1.00  0.00     0.037 C 
ATOM      2  C   UNL     1      45.311  17.478 -22.521  1.00  0.00     0.064 C 
ATOM      3  C   UNL     1      46.693  18.129 -22.516  1.00  0.00     0.081 C 
ATOM      4  C   UNL     1      46.577  19.635 -22.255  1.00  0.00     0.132 C 
ATOM      5  C   UNL     1      45.760  20.302 -23.364  1.00  0.00     0.166 C 
ATOM      6  C   UNL     1      44.422  19.606 -23.446  1.00  0.00     0.018 C 
ENDROOT
BRANCH   1   7
ATOM      7  C   UNL     1      43.402  17.568 -24.266  1.00  0.00     0.331 C 
ATOM      8  O   UNL     1      43.811  16.637 -24.994  1.00  0.00    -0.247 OA
BRANCH   7   9
ATOM      9  O   UNL     1      42.197  17.908 -24.227  1.00  0.00    -0.478 OA
ATOM     10  H   UNL     1      41.573  17.601 -24.931  1.00  0.00     0.297 HD
ENDBRANCH   7   9
ENDBRANCH   1   7
BRANCH   3  11
ATOM     11  N   UNL     1      47.513  17.471 -21.514  1.00  0.00    -0.326 NA
ATOM     12  H   UNL     1      48.079  18.173 -21.018  1.00  0.00     0.119 HD
ATOM     13  H   UNL     1      46.906  16.982 -20.841  1.00  0.00     0.119 HD
ENDBRANCH   3  11
BRANCH   5  14
ATOM     14  O   UNL     1      45.514  21.686 -23.107  1.00  0.00    -0.369 OA
BRANCH  14  15
ATOM     15  C   UNL     1      45.786  22.554 -24.216  1.00  0.00     0.118 C 
BRANCH  15  16
ATOM     16  C   UNL     1      46.814  21.974 -25.204  1.00  0.00     0.028 C 
ATOM     17  C   UNL     1      48.219  22.505 -25.032  1.00  0.00     0.006 C 
ENDBRANCH  15  16
BRANCH  15  18
ATOM     18  C   UNL     1      44.450  22.893 -24.875  1.00  0.00     0.028 C 
ATOM     19  C   UNL     1      44.568  24.142 -25.725  1.00  0.00     0.006 C 
ENDBRANCH  15  18
ENDBRANCH  14  15
ENDBRANCH   5  14
BRANCH   4  20
ATOM     20  N   UNL     1      47.896  20.229 -22.179  1.00  0.00    -0.349 N 
ATOM     21  C   UNL     1      48.243  21.122 -21.257  1.00  0.00     0.217 C 
ATOM     22  O   UNL     1      47.484  21.508 -20.380  1.00  0.00    -0.275 OA
ATOM     23  H   UNL     1      48.600  19.945 -22.875  1.00  0.00     0.163 HD
ATOM     24  C   UNL     1      49.653  21.619 -21.369  1.00  0.00     0.114 C 
ENDBRANCH   4  20
TORSDOF 8
ENDMDL
MODEL 8
REMARK VINA RESULT:    -6.004      2.263      3.454
REMARK INTER + INTRA:          -9.224
REMARK INTER:                  -8.114
REMARK INTRA:                  -1.109
REMARK UNBOUND:                -0.763
REMARK SMILES CCC(CC)O[C@@H]1C=C(C(=O)O)C[C@H](N)[C@H]1NC(C)=O
REMARK SMILES IDX 9 1 13 2 14 3 16 4 7 5 8 6 10 7 11 8 12 9 15 11 6 14 3 15
REMARK SMILES IDX 4 16 5 17 2 18 1 19 17 20 18 21 20 22 19 24
REMARK H PARENT 12 10 15 12 15 13 17 23
ROOT
ATOM      1  C   UNL     1      47.339  18.149 -22.042  1.00  0.00     0.037 C 
ATOM      2  C   UNL     1      48.370  19.257 -21.912  1.00  0.00     0.064 C 
ATOM      3  C   UNL     1      48.304  20.183 -23.125  1.00  0.00     0.081 C 
ATOM      4  C   UNL     1      46.858  20.609 -23.398  1.00  0.00     0.132 C 
ATOM      5  C   UNL     1      45.996  19.383 -23.710  1.00  0.00     0.166 C 
ATOM      6  C   UNL     1      46.124  18.412 -22.560  1.00  0.00     0.018 C 
ENDROOT
BRANCH   1   7
ATOM      7  C   UNL     1      47.657  16.785 -21.627  1.00  0.00     0.331 C 
ATOM      8  O   UNL     1      47.218  15.836 -22.312  1.00  0.00    -0.247 OA
BRANCH   7   9
ATOM      9  O   UNL     1      48.374  16.606 -20.616  1.00  0.00    -0.478 OA
ATOM     10  H   UNL     1      48.002  16.759 -19.712  1.00  0.00     0.297 HD
ENDBRANCH   7   9
ENDBRANCH   1   7
BRANCH   3  11
ATOM     11  N   UNL     1      49.165  21.327 -22.883  1.00  0.00    -0.326 NA
ATOM     12  H   UNL     1      49.584  21.636 -23.772  1.00  0.00     0.119 HD
ATOM     13  H   UNL     1      48.610  22.095 -22.480  1.00  0.00     0.119 HD
ENDBRANCH   3  11
BRANCH   5  14
ATOM     14  O   UNL     1      44.611  19.706 -23.850  1.00  0.00    -0.369 OA
BRANCH  14  15
ATOM     15  C   UNL     1      44.007  19.227 -25.060  1.00  0.00     0.118 C 
BRANCH  15  16
ATOM     16  C   UNL     1      45.034  18.758 -26.106  1.00  0.00     0.028 C 
ATOM     17  C   UNL     1      45.212  19.698 -27.276  1.00  0.00     0.006 C 
ENDBRANCH  15  16
BRANCH  15  18
ATOM     18  C   UNL     1      43.007  18.139 -24.676  1.00  0.00     0.028 C 
ATOM     19  C   UNL     1      43.606  16.761 -24.871  1.00  0.00     0.006 C 
ENDBRANCH  15  18
ENDBRANCH  14  15
ENDBRANCH   5  14
BRANCH   4  20
ATOM     20  N   UNL     1      46.815  21.544 -24.503  1.00  0.00    -0.349 N 
ATOM     21  C   UNL     1      46.142  22.690 -24.464  1.00  0.00     0.217 C 
ATOM     22  O   UNL     1      45.513  23.065 -23.485  1.00  0.00    -0.275 OA
ATOM     23  H   UNL     1      47.332  21.309 -25.362  1.00  0.00     0.163 HD
ATOM     24  C   UNL     1      46.220  23.502 -25.722  1.00  0.00     0.114 C 
ENDBRANCH   4  20
TORSDOF 8
ENDMDL
MODEL 9
REMARK VINA RESULT:    -5.949      2.359      4.170
REMARK INTER + INTRA:          -9.147
REMARK INTER:                  -8.151
REMARK INTRA:                  -0.995
REMARK UNBOUND:                -0.763
REMARK SMILES CCC(CC)O[C@@H]1C=C(C(=O)O)C[C@H](N)[C@H]1NC(C)=O
REMARK SMILES IDX 9 1 13 2 14 3 16 4 7 5 8 6 10 7 11 8 12 9 15 11 6 14 3 15
REMARK SMILES IDX 4 16 5 17 2 18 1 19 17 20 18 21 20 22 19 24
REMARK H PARENT 12 10 15 12 15 13 17 23
ROOT
ATOM      1  C   UNL     1      45.582  17.465 -22.863  1.00  0.00     0.037 C 
ATOM      2  C   UNL     1      44.115  17.792 -23.087  1.00  0.00     0.064 C 
ATOM      3  C   UNL     1      43.904  19.305 -23.066  1.00  0.00     0.081 C 
ATOM      4  C   UNL     1      44.919  20.002 -23.979  1.00  0.00     0.132 C 
ATOM      5  C   UNL     1      46.344  19.732 -23.488  1.00  0.00     0.166 C 
ATOM      6  C   UNL     1      46.539  18.236 -23.412  1.00  0.00     0.018 C 
ENDROOT
BRANCH   1   7
ATOM      7  C   UNL     1      45.970  16.326 -22.034  1.00  0.00     0.331 C 
ATOM      8  O   UNL     1      47.064  15.765 -22.267  1.00  0.00    -0.247 OA
BRANCH   7   9
ATOM      9  O   UNL     1      45.214  15.959 -21.107  1.00  0.00    -0.478 OA
ATOM     10  H   UNL     1      44.348  16.417 -20.963  1.00  0.00     0.297 HD
ENDBRANCH   7   9
ENDBRANCH   1   7
BRANCH   3  11
ATOM     11  N   UNL     1      42.537  19.588 -23.466  1.00  0.00    -0.326 NA
ATOM     12  H   UNL     1      42.016  18.705 -23.561  1.00  0.00     0.119 HD
ATOM     13  H   UNL     1      42.085  20.177 -22.752  1.00  0.00     0.119 HD
ENDBRANCH   3  11
BRANCH   5  14
ATOM     14  O   UNL     1      47.337  20.254 -24.372  1.00  0.00    -0.369 OA
BRANCH  14  15
ATOM     15  C   UNL     1      48.330  21.070 -23.736  1.00  0.00     0.118 C 
BRANCH  15  16
ATOM     16  C   UNL     1      47.899  21.580 -22.349  1.00  0.00     0.028 C 
ATOM     17  C   UNL     1      47.816  23.085 -22.233  1.00  0.00     0.006 C 
ENDBRANCH  15  16
BRANCH  15  18
ATOM     18  C   UNL     1      49.630  20.270 -23.700  1.00  0.00     0.028 C 
ATOM     19  C   UNL     1      49.972  19.858 -22.283  1.00  0.00     0.006 C 
ENDBRANCH  15  18
ENDBRANCH  14  15
ENDBRANCH   5  14
BRANCH   4  20
ATOM     20  N   UNL     1      44.663  21.427 -24.009  1.00  0.00    -0.349 N 
ATOM     21  C   UNL     1      44.059  22.039 -25.023  1.00  0.00     0.217 C 
ATOM     22  O   UNL     1      43.649  21.451 -26.013  1.00  0.00    -0.275 OA
ATOM     23  H   UNL     1      44.965  21.995 -23.204  1.00  0.00     0.163 HD
ATOM     24  C   UNL     1      43.907  23.521 -24.856  1.00  0.00     0.114 C 
ENDBRANCH   4  20
TORSDOF 8
ENDMDL
