MODEL 1
REMARK VINA RESULT:    -7.408      0.000      0.000
REMARK INTER + INTRA:         -11.079
REMARK INTER:                 -10.439
REMARK INTRA:                  -0.640
REMARK UNBOUND:                -0.640
REMARK SMILES CO[C@H]1OC(OC(=O)c2cc(O)c(O)c(O)c2)[C@H](O)[C@@H](O)[C@@H]1O
REMARK SMILES IDX 7 1 8 2 6 3 5 4 3 5 22 6 4 7 20 8 18 9 2 10 1 11 23 12 21 14
REMARK SMILES IDX 19 16 9 18 17 19 10 20 15 21 11 22 13 23 16 24 12 26 14 28
REMARK H PARENT 23 13 21 15 19 17 16 25 12 27 14 29
ROOT
ATOM      1  C   UNL     1      23.589 -34.203  16.505  1.00  0.00     0.340 C 
ATOM      2  O   UNL     1      22.514 -33.630  16.434  1.00  0.00    -0.246 OA
ENDROOT
BRANCH   1   3
ATOM      3  O   UNL     1      23.952 -35.137  17.415  1.00  0.00    -0.429 OA
BRANCH   3   4
ATOM      4  C   UNL     1      22.879 -35.724  18.168  1.00  0.00     0.345 C 
ATOM      5  C   UNL     1      23.546 -37.931  17.560  1.00  0.00     0.285 C 
ATOM      6  C   UNL     1      24.002 -38.258  18.992  1.00  0.00     0.202 C 
ATOM      7  O   UNL     1      22.493 -36.973  17.569  1.00  0.00    -0.308 OA
ATOM      8  C   UNL     1      24.425 -36.978  19.705  1.00  0.00     0.183 C 
ATOM      9  C   UNL     1      23.305 -35.941  19.635  1.00  0.00     0.215 C 
BRANCH   5  10
ATOM     10  O   UNL     1      23.099 -39.170  16.987  1.00  0.00    -0.353 OA
ATOM     11  C   UNL     1      23.873 -39.535  15.850  1.00  0.00     0.198 C 
ENDBRANCH   5  10
BRANCH   6  12
ATOM     12  O   UNL     1      25.105 -39.179  18.999  1.00  0.00    -0.385 OA
ATOM     13  H   UNL     1      25.276 -39.379  18.056  1.00  0.00     0.211 HD
ENDBRANCH   6  12
BRANCH   8  14
ATOM     14  O   UNL     1      24.724 -37.254  21.085  1.00  0.00    -0.387 OA
ATOM     15  H   UNL     1      23.918 -37.687  21.436  1.00  0.00     0.211 HD
ENDBRANCH   8  14
BRANCH   9  16
ATOM     16  O   UNL     1      23.751 -34.733  20.262  1.00  0.00    -0.384 OA
ATOM     17  H   UNL     1      23.924 -34.977  21.193  1.00  0.00     0.211 HD
ENDBRANCH   9  16
ENDBRANCH   3   4
ENDBRANCH   1   3
BRANCH   1  18
ATOM     18  C   UNL     1      24.701 -33.950  15.550  1.00  0.00     0.067 A 
ATOM     19  C   UNL     1      25.731 -34.906  15.477  1.00  0.00     0.066 A 
ATOM     20  C   UNL     1      24.748 -32.802  14.742  1.00  0.00     0.066 A 
ATOM     21  C   UNL     1      26.791 -34.708  14.599  1.00  0.00     0.162 A 
ATOM     22  C   UNL     1      25.818 -32.625  13.875  1.00  0.00     0.162 A 
ATOM     23  C   UNL     1      26.833 -33.570  13.801  1.00  0.00     0.200 A 
BRANCH  21  24
ATOM     24  O   UNL     1      27.817 -35.603  14.484  1.00  0.00    -0.504 OA
ATOM     25  H   UNL     1      28.085 -35.880  15.379  1.00  0.00     0.293 HD
ENDBRANCH  21  24
BRANCH  22  26
ATOM     26  O   UNL     1      25.865 -31.509  13.091  1.00  0.00    -0.504 OA
ATOM     27  H   UNL     1      26.449 -31.754  12.345  1.00  0.00     0.293 HD
ENDBRANCH  22  26
BRANCH  23  28
ATOM     28  O   UNL     1      27.872 -33.364  12.935  1.00  0.00    -0.502 OA
ATOM     29  H   UNL     1      27.800 -32.418  12.691  1.00  0.00     0.293 HD
ENDBRANCH  23  28
ENDBRANCH   1  18
TORSDOF 10
ENDMDL
MODEL 2
REMARK VINA RESULT:    -7.249      2.180      4.514
REMARK INTER + INTRA:         -10.855
REMARK INTER:                 -10.073
REMARK INTRA:                  -0.781
REMARK UNBOUND:                -0.640
REMARK SMILES CO[C@H]1OC(OC(=O)c2cc(O)c(O)c(O)c2)[C@H](O)[C@@H](O)[C@@H]1O
REMARK SMILES IDX 7 1 8 2 6 3 5 4 3 5 22 6 4 7 20 8 18 9 2 10 1 11 23 12 21 14
REMARK SMILES IDX 19 16 9 18 17 19 10 20 15 21 11 22 13 23 16 24 12 26 14 28
REMARK H PARENT 23 13 21 15 19 17 16 25 12 27 14 29
ROOT
ATOM      1  C   UNL     1      23.249 -36.038  18.010  1.00  0.00     0.340 C 
ATOM      2  O   UNL     1      22.888 -37.170  17.733  1.00  0.00    -0.246 OA
ENDROOT
BRANCH   1   3
ATOM      3  O   UNL     1      23.288 -35.476  19.241  1.00  0.00    -0.429 OA
BRANCH   3   4
ATOM      4  C   UNL     1      24.377 -35.891  20.081  1.00  0.00     0.345 C 
ATOM      5  C   UNL     1      24.531 -33.736  21.089  1.00  0.00     0.285 C 
ATOM      6  C   UNL     1      24.008 -34.258  22.439  1.00  0.00     0.202 C 
ATOM      7  O   UNL     1      25.216 -34.763  20.379  1.00  0.00    -0.308 OA
ATOM      8  C   UNL     1      23.108 -35.467  22.212  1.00  0.00     0.183 C 
ATOM      9  C   UNL     1      23.842 -36.522  21.384  1.00  0.00     0.215 C 
BRANCH   5  10
ATOM     10  O   UNL     1      25.421 -32.650  21.395  1.00  0.00    -0.353 OA
ATOM     11  C   UNL     1      26.677 -33.116  21.872  1.00  0.00     0.198 C 
ENDBRANCH   5  10
BRANCH   6  12
ATOM     12  O   UNL     1      23.263 -33.251  23.142  1.00  0.00    -0.385 OA
ATOM     13  H   UNL     1      23.159 -33.598  24.051  1.00  0.00     0.211 HD
ENDBRANCH   6  12
BRANCH   8  14
ATOM     14  O   UNL     1      22.725 -36.044  23.472  1.00  0.00    -0.387 OA
ATOM     15  H   UNL     1      22.641 -37.004  23.296  1.00  0.00     0.211 HD
ENDBRANCH   8  14
BRANCH   9  16
ATOM     16  O   UNL     1      22.956 -37.620  21.139  1.00  0.00    -0.384 OA
ATOM     17  H   UNL     1      23.506 -38.422  21.243  1.00  0.00     0.211 HD
ENDBRANCH   9  16
ENDBRANCH   3   4
ENDBRANCH   1   3
BRANCH   1  18
ATOM     18  C   UNL     1      23.729 -35.073  16.985  1.00  0.00     0.067 A 
ATOM     19  C   UNL     1      23.000 -33.881  16.816  1.00  0.00     0.066 A 
ATOM     20  C   UNL     1      24.864 -35.320  16.196  1.00  0.00     0.066 A 
ATOM     21  C   UNL     1      23.412 -32.952  15.867  1.00  0.00     0.162 A 
ATOM     22  C   UNL     1      25.256 -34.378  15.254  1.00  0.00     0.162 A 
ATOM     23  C   UNL     1      24.537 -33.201  15.089  1.00  0.00     0.200 A 
BRANCH  21  24
ATOM     24  O   UNL     1      22.744 -31.778  15.662  1.00  0.00    -0.504 OA
ATOM     25  H   UNL     1      21.972 -31.755  16.257  1.00  0.00     0.293 HD
ENDBRANCH  21  24
BRANCH  22  26
ATOM     26  O   UNL     1      26.357 -34.619  14.486  1.00  0.00    -0.504 OA
ATOM     27  H   UNL     1      27.110 -34.301  15.025  1.00  0.00     0.293 HD
ENDBRANCH  22  26
BRANCH  23  28
ATOM     28  O   UNL     1      24.951 -32.295  14.152  1.00  0.00    -0.502 OA
ATOM     29  H   UNL     1      24.972 -32.804  13.315  1.00  0.00     0.293 HD
ENDBRANCH  23  28
ENDBRANCH   1  18
TORSDOF 10
ENDMDL
MODEL 3
REMARK VINA RESULT:    -7.228      3.891      7.310
REMARK INTER + INTRA:         -10.826
REMARK INTER:                 -10.028
REMARK INTRA:                  -0.798
REMARK UNBOUND:                -0.640
REMARK SMILES CO[C@H]1OC(OC(=O)c2cc(O)c(O)c(O)c2)[C@H](O)[C@@H](O)[C@@H]1O
REMARK SMILES IDX 7 1 8 2 6 3 5 4 3 5 22 6 4 7 20 8 18 9 2 10 1 11 23 12 21 14
REMARK SMILES IDX 19 16 9 18 17 19 10 20 15 21 11 22 13 23 16 24 12 26 14 28
REMARK H PARENT 23 13 21 15 19 17 16 25 12 27 14 29
ROOT
ATOM      1  C   UNL     1      26.109 -34.206  21.251  1.00  0.00     0.340 C 
ATOM      2  O   UNL     1      27.310 -34.271  21.046  1.00  0.00    -0.246 OA
ENDROOT
BRANCH   1   3
ATOM      3  O   UNL     1      25.122 -34.640  20.434  1.00  0.00    -0.429 OA
BRANCH   3   4
ATOM      4  C   UNL     1      25.089 -36.056  20.193  1.00  0.00     0.345 C 
ATOM      5  C   UNL     1      22.723 -36.039  19.901  1.00  0.00     0.285 C 
ATOM      6  C   UNL     1      22.841 -36.337  18.397  1.00  0.00     0.202 C 
ATOM      7  O   UNL     1      23.824 -36.591  20.616  1.00  0.00    -0.308 OA
ATOM      8  C   UNL     1      24.168 -35.805  17.867  1.00  0.00     0.183 C 
ATOM      9  C   UNL     1      25.327 -36.355  18.698  1.00  0.00     0.215 C 
BRANCH   5  10
ATOM     10  O   UNL     1      21.488 -36.632  20.334  1.00  0.00    -0.353 OA
ATOM     11  C   UNL     1      21.692 -37.563  21.390  1.00  0.00     0.198 C 
ENDBRANCH   5  10
BRANCH   6  12
ATOM     12  O   UNL     1      21.769 -35.737  17.653  1.00  0.00    -0.385 OA
ATOM     13  H   UNL     1      20.982 -35.816  18.230  1.00  0.00     0.211 HD
ENDBRANCH   6  12
BRANCH   8  14
ATOM     14  O   UNL     1      24.347 -36.198  16.494  1.00  0.00    -0.387 OA
ATOM     15  H   UNL     1      24.203 -35.380  15.976  1.00  0.00     0.211 HD
ENDBRANCH   8  14
BRANCH   9  16
ATOM     16  O   UNL     1      26.552 -35.795  18.213  1.00  0.00    -0.384 OA
ATOM     17  H   UNL     1      26.877 -36.430  17.544  1.00  0.00     0.211 HD
ENDBRANCH   9  16
ENDBRANCH   3   4
ENDBRANCH   1   3
BRANCH   1  18
ATOM     18  C   UNL     1      25.535 -33.620  22.492  1.00  0.00     0.067 A 
ATOM     19  C   UNL     1      26.430 -33.196  23.491  1.00  0.00     0.066 A 
ATOM     20  C   UNL     1      24.150 -33.487  22.686  1.00  0.00     0.066 A 
ATOM     21  C   UNL     1      25.936 -32.644  24.667  1.00  0.00     0.162 A 
ATOM     22  C   UNL     1      23.680 -32.934  23.870  1.00  0.00     0.162 A 
ATOM     23  C   UNL     1      24.565 -32.514  24.855  1.00  0.00     0.200 A 
BRANCH  21  24
ATOM     24  O   UNL     1      26.758 -32.213  25.670  1.00  0.00    -0.504 OA
ATOM     25  H   UNL     1      26.353 -31.430  26.086  1.00  0.00     0.293 HD
ENDBRANCH  21  24
BRANCH  22  26
ATOM     26  O   UNL     1      22.335 -32.807  24.060  1.00  0.00    -0.504 OA
ATOM     27  H   UNL     1      21.944 -33.566  23.580  1.00  0.00     0.293 HD
ENDBRANCH  22  26
BRANCH  23  28
ATOM     28  O   UNL     1      24.067 -31.974  26.009  1.00  0.00    -0.502 OA
ATOM     29  H   UNL     1      23.100 -32.121  25.948  1.00  0.00     0.293 HD
ENDBRANCH  23  28
ENDBRANCH   1  18
TORSDOF 10
ENDMDL
MODEL 4
REMARK VINA RESULT:    -7.189      3.641      6.755
REMARK INTER + INTRA:         -10.771
REMARK INTER:                 -10.028
REMARK INTRA:                  -0.743
REMARK UNBOUND:                -0.640
REMARK SMILES CO[C@H]1OC(OC(=O)c2cc(O)c(O)c(O)c2)[C@H](O)[C@@H](O)[C@@H]1O
REMARK SMILES IDX 7 1 8 2 6 3 5 4 3 5 22 6 4 7 20 8 18 9 2 10 1 11 23 12 21 14
REMARK SMILES IDX 19 16 9 18 17 19 10 20 15 21 11 22 13 23 16 24 12 26 14 28
REMARK H PARENT 23 13 21 15 19 17 16 25 12 27 14 29
ROOT
ATOM      1  C   UNL     1      23.558 -35.393  22.385  1.00  0.00     0.340 C 
ATOM      2  O   UNL     1      22.707 -35.930  23.075  1.00  0.00    -0.246 OA
ENDROOT
BRANCH   1   3
ATOM      3  O   UNL     1      23.851 -35.673  21.093  1.00  0.00    -0.429 OA
BRANCH   3   4
ATOM      4  C   UNL     1      22.722 -35.893  20.233  1.00  0.00     0.345 C 
ATOM      5  C   UNL     1      24.044 -35.574  18.274  1.00  0.00     0.285 C 
ATOM      6  C   UNL     1      23.940 -37.059  17.884  1.00  0.00     0.202 C 
ATOM      7  O   UNL     1      22.896 -35.161  19.008  1.00  0.00    -0.308 OA
ATOM      8  C   UNL     1      23.746 -37.910  19.133  1.00  0.00     0.183 C 
ATOM      9  C   UNL     1      22.553 -37.399  19.939  1.00  0.00     0.215 C 
BRANCH   5  10
ATOM     10  O   UNL     1      24.151 -34.840  17.045  1.00  0.00    -0.353 OA
ATOM     11  C   UNL     1      22.991 -34.055  16.795  1.00  0.00     0.198 C 
ENDBRANCH   5  10
BRANCH   6  12
ATOM     12  O   UNL     1      25.118 -37.507  17.194  1.00  0.00    -0.385 OA
ATOM     13  H   UNL     1      24.846 -38.325  16.729  1.00  0.00     0.211 HD
ENDBRANCH   6  12
BRANCH   8  14
ATOM     14  O   UNL     1      23.513 -39.282  18.767  1.00  0.00    -0.387 OA
ATOM     15  H   UNL     1      24.140 -39.459  18.036  1.00  0.00     0.211 HD
ENDBRANCH   8  14
BRANCH   9  16
ATOM     16  O   UNL     1      22.430 -38.181  21.133  1.00  0.00    -0.384 OA
ATOM     17  H   UNL     1      22.277 -39.097  20.824  1.00  0.00     0.211 HD
ENDBRANCH   9  16
ENDBRANCH   3   4
ENDBRANCH   1   3
BRANCH   1  18
ATOM     18  C   UNL     1      24.431 -34.299  22.888  1.00  0.00     0.067 A 
ATOM     19  C   UNL     1      24.339 -33.964  24.252  1.00  0.00     0.066 A 
ATOM     20  C   UNL     1      25.321 -33.606  22.052  1.00  0.00     0.066 A 
ATOM     21  C   UNL     1      25.135 -32.945  24.764  1.00  0.00     0.162 A 
ATOM     22  C   UNL     1      26.105 -32.592  22.586  1.00  0.00     0.162 A 
ATOM     23  C   UNL     1      26.015 -32.263  23.933  1.00  0.00     0.200 A 
BRANCH  21  24
ATOM     24  O   UNL     1      25.090 -32.579  26.080  1.00  0.00    -0.504 OA
ATOM     25  H   UNL     1      24.720 -31.679  26.136  1.00  0.00     0.293 HD
ENDBRANCH  21  24
BRANCH  22  26
ATOM     26  O   UNL     1      26.968 -31.917  21.774  1.00  0.00    -0.504 OA
ATOM     27  H   UNL     1      26.599 -32.027  20.873  1.00  0.00     0.293 HD
ENDBRANCH  22  26
BRANCH  23  28
ATOM     28  O   UNL     1      26.803 -31.258  24.426  1.00  0.00    -0.502 OA
ATOM     29  H   UNL     1      26.386 -31.021  25.280  1.00  0.00     0.293 HD
ENDBRANCH  23  28
ENDBRANCH   1  18
TORSDOF 10
ENDMDL
MODEL 5
REMARK VINA RESULT:    -7.189      2.220      4.273
REMARK INTER + INTRA:         -10.770
REMARK INTER:                 -10.006
REMARK INTRA:                  -0.764
REMARK UNBOUND:                -0.640
REMARK SMILES CO[C@H]1OC(OC(=O)c2cc(O)c(O)c(O)c2)[C@H](O)[C@@H](O)[C@@H]1O
REMARK SMILES IDX 7 1 8 2 6 3 5 4 3 5 22 6 4 7 20 8 18 9 2 10 1 11 23 12 21 14
REMARK SMILES IDX 19 16 9 18 17 19 10 20 15 21 11 22 13 23 16 24 12 26 14 28
REMARK H PARENT 23 13 21 15 19 17 16 25 12 27 14 29
ROOT
ATOM      1  C   UNL     1      23.273 -35.976  18.064  1.00  0.00     0.340 C 
ATOM      2  O   UNL     1      22.930 -37.113  17.783  1.00  0.00    -0.246 OA
ENDROOT
BRANCH   1   3
ATOM      3  O   UNL     1      23.319 -35.424  19.299  1.00  0.00    -0.429 OA
BRANCH   3   4
ATOM      4  C   UNL     1      24.370 -35.899  20.155  1.00  0.00     0.345 C 
ATOM      5  C   UNL     1      24.625 -33.760  21.175  1.00  0.00     0.285 C 
ATOM      6  C   UNL     1      24.052 -34.257  22.513  1.00  0.00     0.202 C 
ATOM      7  O   UNL     1      25.264 -34.820  20.471  1.00  0.00    -0.308 OA
ATOM      8  C   UNL     1      23.092 -35.415  22.266  1.00  0.00     0.183 C 
ATOM      9  C   UNL     1      23.781 -36.506  21.446  1.00  0.00     0.215 C 
BRANCH   5  10
ATOM     10  O   UNL     1      25.567 -32.725  21.499  1.00  0.00    -0.353 OA
ATOM     11  C   UNL     1      26.727 -33.248  22.134  1.00  0.00     0.198 C 
ENDBRANCH   5  10
BRANCH   6  12
ATOM     12  O   UNL     1      23.351 -33.214  23.209  1.00  0.00    -0.385 OA
ATOM     13  H   UNL     1      23.908 -33.007  23.987  1.00  0.00     0.211 HD
ENDBRANCH   6  12
BRANCH   8  14
ATOM     14  O   UNL     1      22.657 -35.975  23.518  1.00  0.00    -0.387 OA
ATOM     15  H   UNL     1      21.882 -35.435  23.780  1.00  0.00     0.211 HD
ENDBRANCH   8  14
BRANCH   9  16
ATOM     16  O   UNL     1      22.841 -37.553  21.182  1.00  0.00    -0.384 OA
ATOM     17  H   UNL     1      23.339 -38.384  21.317  1.00  0.00     0.211 HD
ENDBRANCH   9  16
ENDBRANCH   3   4
ENDBRANCH   1   3
BRANCH   1  18
ATOM     18  C   UNL     1      23.716 -34.993  17.039  1.00  0.00     0.067 A 
ATOM     19  C   UNL     1      24.871 -35.298  16.296  1.00  0.00     0.066 A 
ATOM     20  C   UNL     1      23.027 -33.792  16.806  1.00  0.00     0.066 A 
ATOM     21  C   UNL     1      25.323 -34.406  15.330  1.00  0.00     0.162 A 
ATOM     22  C   UNL     1      23.497 -32.916  15.837  1.00  0.00     0.162 A 
ATOM     23  C   UNL     1      24.636 -33.219  15.102  1.00  0.00     0.200 A 
BRANCH  21  24
ATOM     24  O   UNL     1      26.436 -34.652  14.577  1.00  0.00    -0.504 OA
ATOM     25  H   UNL     1      26.668 -33.836  14.095  1.00  0.00     0.293 HD
ENDBRANCH  21  24
BRANCH  22  26
ATOM     26  O   UNL     1      22.829 -31.748  15.611  1.00  0.00    -0.504 OA
ATOM     27  H   UNL     1      21.964 -32.024  15.245  1.00  0.00     0.293 HD
ENDBRANCH  22  26
BRANCH  23  28
ATOM     28  O   UNL     1      25.072 -32.333  14.155  1.00  0.00    -0.502 OA
ATOM     29  H   UNL     1      25.705 -31.758  14.633  1.00  0.00     0.293 HD
ENDBRANCH  23  28
ENDBRANCH   1  18
TORSDOF 10
ENDMDL
MODEL 6
REMARK VINA RESULT:    -7.074      3.556      6.407
REMARK INTER + INTRA:         -10.608
REMARK INTER:                  -9.878
REMARK INTRA:                  -0.730
REMARK UNBOUND:                -0.640
REMARK SMILES CO[C@H]1OC(OC(=O)c2cc(O)c(O)c(O)c2)[C@H](O)[C@@H](O)[C@@H]1O
REMARK SMILES IDX 7 1 8 2 6 3 5 4 3 5 22 6 4 7 20 8 18 9 2 10 1 11 23 12 21 14
REMARK SMILES IDX 19 16 9 18 17 19 10 20 15 21 11 22 13 23 16 24 12 26 14 28
REMARK H PARENT 23 13 21 15 19 17 16 25 12 27 14 29
ROOT
ATOM      1  C   UNL     1      22.576 -36.304  18.259  1.00  0.00     0.340 C 
ATOM      2  O   UNL     1      21.967 -35.547  17.520  1.00  0.00    -0.246 OA
ENDROOT
BRANCH   1   3
ATOM      3  O   UNL     1      23.280 -37.401  17.894  1.00  0.00    -0.429 OA
BRANCH   3   4
ATOM      4  C   UNL     1      24.510 -37.148  17.196  1.00  0.00     0.345 C 
ATOM      5  C   UNL     1      25.814 -37.810  19.079  1.00  0.00     0.285 C 
ATOM      6  C   UNL     1      26.308 -39.084  18.370  1.00  0.00     0.202 C 
ATOM      7  O   UNL     1      25.534 -36.781  18.135  1.00  0.00    -0.308 OA
ATOM      8  C   UNL     1      25.276 -39.539  17.346  1.00  0.00     0.183 C 
ATOM      9  C   UNL     1      24.939 -38.394  16.391  1.00  0.00     0.215 C 
BRANCH   5  10
ATOM     10  O   UNL     1      26.868 -37.409  19.969  1.00  0.00    -0.353 OA
ATOM     11  C   UNL     1      27.919 -36.746  19.277  1.00  0.00     0.198 C 
ENDBRANCH   5  10
BRANCH   6  12
ATOM     12  O   UNL     1      26.540 -40.152  19.303  1.00  0.00    -0.385 OA
ATOM     13  H   UNL     1      26.038 -40.914  18.948  1.00  0.00     0.211 HD
ENDBRANCH   6  12
BRANCH   8  14
ATOM     14  O   UNL     1      25.788 -40.648  16.585  1.00  0.00    -0.387 OA
ATOM     15  H   UNL     1      25.466 -41.446  17.053  1.00  0.00     0.211 HD
ENDBRANCH   8  14
BRANCH   9  16
ATOM     16  O   UNL     1      23.928 -38.832  15.477  1.00  0.00    -0.384 OA
ATOM     17  H   UNL     1      23.953 -39.809  15.518  1.00  0.00     0.211 HD
ENDBRANCH   9  16
ENDBRANCH   3   4
ENDBRANCH   1   3
BRANCH   1  18
ATOM     18  C   UNL     1      22.639 -36.114  19.733  1.00  0.00     0.067 A 
ATOM     19  C   UNL     1      21.814 -36.926  20.533  1.00  0.00     0.066 A 
ATOM     20  C   UNL     1      23.479 -35.161  20.330  1.00  0.00     0.066 A 
ATOM     21  C   UNL     1      21.840 -36.781  21.915  1.00  0.00     0.162 A 
ATOM     22  C   UNL     1      23.487 -35.033  21.713  1.00  0.00     0.162 A 
ATOM     23  C   UNL     1      22.674 -35.836  22.502  1.00  0.00     0.200 A 
BRANCH  21  24
ATOM     24  O   UNL     1      21.063 -37.544  22.741  1.00  0.00    -0.504 OA
ATOM     25  H   UNL     1      21.195 -37.238  23.657  1.00  0.00     0.293 HD
ENDBRANCH  21  24
BRANCH  22  26
ATOM     26  O   UNL     1      24.302 -34.105  22.293  1.00  0.00    -0.504 OA
ATOM     27  H   UNL     1      23.958 -33.243  21.981  1.00  0.00     0.293 HD
ENDBRANCH  22  26
BRANCH  23  28
ATOM     28  O   UNL     1      22.706 -35.683  23.861  1.00  0.00    -0.502 OA
ATOM     29  H   UNL     1      22.585 -34.721  24.000  1.00  0.00     0.293 HD
ENDBRANCH  23  28
ENDBRANCH   1  18
TORSDOF 10
ENDMDL
MODEL 7
REMARK VINA RESULT:    -6.971      2.851      4.875
REMARK INTER + INTRA:         -10.463
REMARK INTER:                  -9.671
REMARK INTRA:                  -0.792
REMARK UNBOUND:                -0.640
REMARK SMILES CO[C@H]1OC(OC(=O)c2cc(O)c(O)c(O)c2)[C@H](O)[C@@H](O)[C@@H]1O
REMARK SMILES IDX 7 1 8 2 6 3 5 4 3 5 22 6 4 7 20 8 18 9 2 10 1 11 23 12 21 14
REMARK SMILES IDX 19 16 9 18 17 19 10 20 15 21 11 22 13 23 16 24 12 26 14 28
REMARK H PARENT 23 13 21 15 19 17 16 25 12 27 14 29
ROOT
ATOM      1  C   UNL     1      23.228 -35.581  19.520  1.00  0.00     0.340 C 
ATOM      2  O   UNL     1      22.588 -36.597  19.740  1.00  0.00    -0.246 OA
ENDROOT
BRANCH   1   3
ATOM      3  O   UNL     1      23.672 -34.689  20.436  1.00  0.00    -0.429 OA
BRANCH   3   4
ATOM      4  C   UNL     1      24.375 -35.244  21.558  1.00  0.00     0.345 C 
ATOM      5  C   UNL     1      26.449 -34.327  20.823  1.00  0.00     0.285 C 
ATOM      6  C   UNL     1      26.492 -33.323  21.988  1.00  0.00     0.202 C 
ATOM      7  O   UNL     1      25.741 -35.505  21.195  1.00  0.00    -0.308 OA
ATOM      8  C   UNL     1      25.075 -32.996  22.442  1.00  0.00     0.183 C 
ATOM      9  C   UNL     1      24.314 -34.282  22.764  1.00  0.00     0.215 C 
BRANCH   5  10
ATOM     10  O   UNL     1      27.815 -34.635  20.505  1.00  0.00    -0.353 OA
ATOM     11  C   UNL     1      27.928 -35.307  19.257  1.00  0.00     0.198 C 
ENDBRANCH   5  10
BRANCH   6  12
ATOM     12  O   UNL     1      27.152 -32.104  21.611  1.00  0.00    -0.385 OA
ATOM     13  H   UNL     1      27.266 -31.606  22.446  1.00  0.00     0.211 HD
ENDBRANCH   6  12
BRANCH   8  14
ATOM     14  O   UNL     1      25.109 -32.165  23.616  1.00  0.00    -0.387 OA
ATOM     15  H   UNL     1      24.718 -31.312  23.334  1.00  0.00     0.211 HD
ENDBRANCH   8  14
BRANCH   9  16
ATOM     16  O   UNL     1      22.971 -33.947  23.132  1.00  0.00    -0.384 OA
ATOM     17  H   UNL     1      22.525 -33.718  22.292  1.00  0.00     0.211 HD
ENDBRANCH   9  16
ENDBRANCH   3   4
ENDBRANCH   1   3
BRANCH   1  18
ATOM     18  C   UNL     1      23.637 -35.167  18.152  1.00  0.00     0.067 A 
ATOM     19  C   UNL     1      22.950 -34.090  17.562  1.00  0.00     0.066 A 
ATOM     20  C   UNL     1      24.667 -35.814  17.450  1.00  0.00     0.066 A 
ATOM     21  C   UNL     1      23.299 -33.671  16.282  1.00  0.00     0.162 A 
ATOM     22  C   UNL     1      24.996 -35.379  16.173  1.00  0.00     0.162 A 
ATOM     23  C   UNL     1      24.319 -34.315  15.591  1.00  0.00     0.200 A 
BRANCH  21  24
ATOM     24  O   UNL     1      22.668 -32.630  15.661  1.00  0.00    -0.504 OA
ATOM     25  H   UNL     1      22.563 -31.906  16.305  1.00  0.00     0.293 HD
ENDBRANCH  21  24
BRANCH  22  26
ATOM     26  O   UNL     1      25.995 -36.009  15.489  1.00  0.00    -0.504 OA
ATOM     27  H   UNL     1      26.712 -36.123  16.147  1.00  0.00     0.293 HD
ENDBRANCH  22  26
BRANCH  23  28
ATOM     28  O   UNL     1      24.670 -33.912  14.331  1.00  0.00    -0.502 OA
ATOM     29  H   UNL     1      25.527 -33.453  14.454  1.00  0.00     0.293 HD
ENDBRANCH  23  28
ENDBRANCH   1  18
TORSDOF 10
ENDMDL
MODEL 8
REMARK VINA RESULT:    -6.949      1.524      3.594
REMARK INTER + INTRA:         -10.433
REMARK INTER:                  -9.627
REMARK INTRA:                  -0.805
REMARK UNBOUND:                -0.640
REMARK SMILES CO[C@H]1OC(OC(=O)c2cc(O)c(O)c(O)c2)[C@H](O)[C@@H](O)[C@@H]1O
REMARK SMILES IDX 7 1 8 2 6 3 5 4 3 5 22 6 4 7 20 8 18 9 2 10 1 11 23 12 21 14
REMARK SMILES IDX 19 16 9 18 17 19 10 20 15 21 11 22 13 23 16 24 12 26 14 28
REMARK H PARENT 23 13 21 15 19 17 16 25 12 27 14 29
ROOT
ATOM      1  C   UNL     1      25.483 -36.242  15.672  1.00  0.00     0.340 C 
ATOM      2  O   UNL     1      26.071 -37.191  15.179  1.00  0.00    -0.246 OA
ENDROOT
BRANCH   1   3
ATOM      3  O   UNL     1      24.726 -36.251  16.794  1.00  0.00    -0.429 OA
BRANCH   3   4
ATOM      4  C   UNL     1      25.386 -36.701  17.987  1.00  0.00     0.345 C 
ATOM      5  C   UNL     1      23.773 -35.638  19.384  1.00  0.00     0.285 C 
ATOM      6  C   UNL     1      23.193 -36.985  19.851  1.00  0.00     0.202 C 
ATOM      7  O   UNL     1      25.152 -35.767  19.054  1.00  0.00    -0.308 OA
ATOM      8  C   UNL     1      23.407 -38.041  18.773  1.00  0.00     0.183 C 
ATOM      9  C   UNL     1      24.884 -38.106  18.384  1.00  0.00     0.215 C 
BRANCH   5  10
ATOM     10  O   UNL     1      23.596 -34.723  20.477  1.00  0.00    -0.353 OA
ATOM     11  C   UNL     1      24.830 -34.142  20.884  1.00  0.00     0.198 C 
ENDBRANCH   5  10
BRANCH   6  12
ATOM     12  O   UNL     1      21.788 -36.886  20.132  1.00  0.00    -0.385 OA
ATOM     13  H   UNL     1      21.734 -36.612  21.070  1.00  0.00     0.211 HD
ENDBRANCH   6  12
BRANCH   8  14
ATOM     14  O   UNL     1      22.991 -39.331  19.254  1.00  0.00    -0.387 OA
ATOM     15  H   UNL     1      22.024 -39.359  19.100  1.00  0.00     0.211 HD
ENDBRANCH   8  14
BRANCH   9  16
ATOM     16  O   UNL     1      25.046 -39.065  17.333  1.00  0.00    -0.384 OA
ATOM     17  H   UNL     1      25.904 -39.500  17.513  1.00  0.00     0.211 HD
ENDBRANCH   9  16
ENDBRANCH   3   4
ENDBRANCH   1   3
BRANCH   1  18
ATOM     18  C   UNL     1      25.523 -34.876  15.085  1.00  0.00     0.067 A 
ATOM     19  C   UNL     1      24.498 -33.980  15.442  1.00  0.00     0.066 A 
ATOM     20  C   UNL     1      26.534 -34.471  14.199  1.00  0.00     0.066 A 
ATOM     21  C   UNL     1      24.496 -32.693  14.915  1.00  0.00     0.162 A 
ATOM     22  C   UNL     1      26.509 -33.181  13.684  1.00  0.00     0.162 A 
ATOM     23  C   UNL     1      25.499 -32.297  14.038  1.00  0.00     0.200 A 
BRANCH  21  24
ATOM     24  O   UNL     1      23.528 -31.781  15.229  1.00  0.00    -0.504 OA
ATOM     25  H   UNL     1      22.918 -32.188  15.871  1.00  0.00     0.293 HD
ENDBRANCH  21  24
BRANCH  22  26
ATOM     26  O   UNL     1      27.490 -32.788  12.821  1.00  0.00    -0.504 OA
ATOM     27  H   UNL     1      28.327 -33.023  13.272  1.00  0.00     0.293 HD
ENDBRANCH  22  26
BRANCH  23  28
ATOM     28  O   UNL     1      25.506 -31.034  13.512  1.00  0.00    -0.502 OA
ATOM     29  H   UNL     1      26.376 -30.667  13.774  1.00  0.00     0.293 HD
ENDBRANCH  23  28
ENDBRANCH   1  18
TORSDOF 10
ENDMDL
MODEL 9
REMARK VINA RESULT:    -6.946      2.658      6.276
REMARK INTER + INTRA:         -10.429
REMARK INTER:                  -9.618
REMARK INTRA:                  -0.810
REMARK UNBOUND:                -0.640
REMARK SMILES CO[C@H]1OC(OC(=O)c2cc(O)c(O)c(O)c2)[C@H](O)[C@@H](O)[C@@H]1O
REMARK SMILES IDX 7 1 8 2 6 3 5 4 3 5 22 6 4 7 20 8 18 9 2 10 1 11 23 12 21 14
REMARK SMILES IDX 19 16 9 18 17 19 10 20 15 21 11 22 13 23 16 24 12 26 14 28
REMARK H PARENT 23 13 21 15 19 17 16 25 12 27 14 29
ROOT
ATOM      1  C   UNL     1      23.676 -36.929  20.865  1.00  0.00     0.340 C 
ATOM      2  O   UNL     1      22.929 -37.724  21.413  1.00  0.00    -0.246 OA
ENDROOT
BRANCH   1   3
ATOM      3  O   UNL     1      24.236 -37.054  19.639  1.00  0.00    -0.429 OA
BRANCH   3   4
ATOM      4  C   UNL     1      23.315 -37.163  18.542  1.00  0.00     0.345 C 
ATOM      5  C   UNL     1      24.963 -36.445  16.976  1.00  0.00     0.285 C 
ATOM      6  C   UNL     1      25.050 -37.839  16.330  1.00  0.00     0.202 C 
ATOM      7  O   UNL     1      23.666 -36.218  17.518  1.00  0.00    -0.308 OA
ATOM      8  C   UNL     1      24.683 -38.907  17.353  1.00  0.00     0.183 C 
ATOM      9  C   UNL     1      23.320 -38.598  17.973  1.00  0.00     0.215 C 
BRANCH   5  10
ATOM     10  O   UNL     1      25.250 -35.500  15.934  1.00  0.00    -0.353 OA
ATOM     11  C   UNL     1      24.338 -34.408  15.945  1.00  0.00     0.198 C 
ENDBRANCH   5  10
BRANCH   6  12
ATOM     12  O   UNL     1      26.369 -38.109  15.829  1.00  0.00    -0.385 OA
ATOM     13  H   UNL     1      26.892 -37.309  16.044  1.00  0.00     0.211 HD
ENDBRANCH   6  12
BRANCH   8  14
ATOM     14  O   UNL     1      24.629 -40.200  16.724  1.00  0.00    -0.387 OA
ATOM     15  H   UNL     1      24.670 -40.015  15.763  1.00  0.00     0.211 HD
ENDBRANCH   8  14
BRANCH   9  16
ATOM     16  O   UNL     1      23.028 -39.585  18.969  1.00  0.00    -0.384 OA
ATOM     17  H   UNL     1      23.689 -39.439  19.676  1.00  0.00     0.211 HD
ENDBRANCH   9  16
ENDBRANCH   3   4
ENDBRANCH   1   3
BRANCH   1  18
ATOM     18  C   UNL     1      24.091 -35.648  21.496  1.00  0.00     0.067 A 
ATOM     19  C   UNL     1      23.302 -35.152  22.551  1.00  0.00     0.066 A 
ATOM     20  C   UNL     1      25.222 -34.935  21.069  1.00  0.00     0.066 A 
ATOM     21  C   UNL     1      23.652 -33.956  23.167  1.00  0.00     0.162 A 
ATOM     22  C   UNL     1      25.551 -33.742  21.699  1.00  0.00     0.162 A 
ATOM     23  C   UNL     1      24.774 -33.254  22.742  1.00  0.00     0.200 A 
BRANCH  21  24
ATOM     24  O   UNL     1      22.925 -33.430  24.198  1.00  0.00    -0.504 OA
ATOM     25  H   UNL     1      23.419 -33.569  25.026  1.00  0.00     0.293 HD
ENDBRANCH  21  24
BRANCH  22  26
ATOM     26  O   UNL     1      26.650 -33.047  21.283  1.00  0.00    -0.504 OA
ATOM     27  H   UNL     1      26.318 -32.462  20.572  1.00  0.00     0.293 HD
ENDBRANCH  22  26
BRANCH  23  28
ATOM     28  O   UNL     1      25.127 -32.075  23.340  1.00  0.00    -0.502 OA
ATOM     29  H   UNL     1      25.077 -31.413  22.620  1.00  0.00     0.293 HD
ENDBRANCH  23  28
ENDBRANCH   1  18
TORSDOF 10
ENDMDL
