MODEL 1
REMARK VINA RESULT:    -7.409      0.000      0.000
REMARK INTER + INTRA:         -11.083
REMARK INTER:                 -10.441
REMARK INTRA:                  -0.642
REMARK UNBOUND:                -0.642
REMARK SMILES CO[C@H]1OC(OC(=O)c2cc(O)c(O)c(O)c2)[C@H](O)[C@@H](O)[C@@H]1O
REMARK SMILES IDX 7 1 8 2 6 3 5 4 3 5 22 6 4 7 20 8 18 9 2 10 1 11 23 12 21 14
REMARK SMILES IDX 19 16 9 18 17 19 10 20 15 21 11 22 13 23 16 24 12 26 14 28
REMARK H PARENT 23 13 21 15 19 17 16 25 12 27 14 29
ROOT
ATOM      1  C   UNL     1      23.580 -34.204  16.500  1.00  0.00     0.340 C 
ATOM      2  O   UNL     1      22.509 -33.625  16.429  1.00  0.00    -0.246 OA
ENDROOT
BRANCH   1   3
ATOM      3  O   UNL     1      23.937 -35.142  17.408  1.00  0.00    -0.429 OA
BRANCH   3   4
ATOM      4  C   UNL     1      22.859 -35.728  18.156  1.00  0.00     0.345 C 
ATOM      5  C   UNL     1      23.532 -37.936  17.559  1.00  0.00     0.285 C 
ATOM      6  C   UNL     1      23.979 -38.258  18.995  1.00  0.00     0.202 C 
ATOM      7  O   UNL     1      22.478 -36.978  17.558  1.00  0.00    -0.308 OA
ATOM      8  C   UNL     1      24.396 -36.976  19.707  1.00  0.00     0.183 C 
ATOM      9  C   UNL     1      23.276 -35.939  19.627  1.00  0.00     0.215 C 
BRANCH   5  10
ATOM     10  O   UNL     1      23.089 -39.177  16.986  1.00  0.00    -0.353 OA
ATOM     11  C   UNL     1      23.867 -39.542  15.853  1.00  0.00     0.198 C 
ENDBRANCH   5  10
BRANCH   6  12
ATOM     12  O   UNL     1      25.081 -39.179  19.012  1.00  0.00    -0.385 OA
ATOM     13  H   UNL     1      24.935 -39.738  19.802  1.00  0.00     0.211 HD
ENDBRANCH   6  12
BRANCH   8  14
ATOM     14  O   UNL     1      24.686 -37.248  21.090  1.00  0.00    -0.387 OA
ATOM     15  H   UNL     1      25.383 -37.935  21.071  1.00  0.00     0.211 HD
ENDBRANCH   8  14
BRANCH   9  16
ATOM     16  O   UNL     1      23.717 -34.729  20.253  1.00  0.00    -0.384 OA
ATOM     17  H   UNL     1      23.457 -34.818  21.192  1.00  0.00     0.211 HD
ENDBRANCH   9  16
ENDBRANCH   3   4
ENDBRANCH   1   3
BRANCH   1  18
ATOM     18  C   UNL     1      24.695 -33.955  15.547  1.00  0.00     0.067 A 
ATOM     19  C   UNL     1      25.724 -34.912  15.480  1.00  0.00     0.066 A 
ATOM     20  C   UNL     1      24.745 -32.811  14.736  1.00  0.00     0.066 A 
ATOM     21  C   UNL     1      26.787 -34.718  14.604  1.00  0.00     0.162 A 
ATOM     22  C   UNL     1      25.817 -32.638  13.870  1.00  0.00     0.162 A 
ATOM     23  C   UNL     1      26.832 -33.583  13.802  1.00  0.00     0.200 A 
BRANCH  21  24
ATOM     24  O   UNL     1      27.812 -35.615  14.495  1.00  0.00    -0.504 OA
ATOM     25  H   UNL     1      27.447 -36.513  14.600  1.00  0.00     0.293 HD
ENDBRANCH  21  24
BRANCH  22  26
ATOM     26  O   UNL     1      25.867 -31.524  13.083  1.00  0.00    -0.504 OA
ATOM     27  H   UNL     1      25.850 -30.774  13.712  1.00  0.00     0.293 HD
ENDBRANCH  22  26
BRANCH  23  28
ATOM     28  O   UNL     1      27.873 -33.381  12.938  1.00  0.00    -0.502 OA
ATOM     29  H   UNL     1      27.873 -32.414  12.781  1.00  0.00     0.293 HD
ENDBRANCH  23  28
ENDBRANCH   1  18
TORSDOF 10
ENDMDL
MODEL 2
REMARK VINA RESULT:    -7.224      3.939      7.360
REMARK INTER + INTRA:         -10.823
REMARK INTER:                 -10.022
REMARK INTRA:                  -0.801
REMARK UNBOUND:                -0.642
REMARK SMILES CO[C@H]1OC(OC(=O)c2cc(O)c(O)c(O)c2)[C@H](O)[C@@H](O)[C@@H]1O
REMARK SMILES IDX 7 1 8 2 6 3 5 4 3 5 22 6 4 7 20 8 18 9 2 10 1 11 23 12 21 14
REMARK SMILES IDX 19 16 9 18 17 19 10 20 15 21 11 22 13 23 16 24 12 26 14 28
REMARK H PARENT 23 13 21 15 19 17 16 25 12 27 14 29
ROOT
ATOM      1  C   UNL     1      26.108 -34.168  21.316  1.00  0.00     0.340 C 
ATOM      2  O   UNL     1      27.309 -34.210  21.103  1.00  0.00    -0.246 OA
ENDROOT
BRANCH   1   3
ATOM      3  O   UNL     1      25.123 -34.618  20.504  1.00  0.00    -0.429 OA
BRANCH   3   4
ATOM      4  C   UNL     1      25.145 -36.026  20.219  1.00  0.00     0.345 C 
ATOM      5  C   UNL     1      22.776 -36.098  19.962  1.00  0.00     0.285 C 
ATOM      6  C   UNL     1      22.883 -36.344  18.446  1.00  0.00     0.202 C 
ATOM      7  O   UNL     1      23.910 -36.626  20.642  1.00  0.00    -0.308 OA
ATOM      8  C   UNL     1      24.178 -35.740  17.915  1.00  0.00     0.183 C 
ATOM      9  C   UNL     1      25.371 -36.267  18.711  1.00  0.00     0.215 C 
BRANCH   5  10
ATOM     10  O   UNL     1      21.574 -36.756  20.393  1.00  0.00    -0.353 OA
ATOM     11  C   UNL     1      21.825 -37.674  21.450  1.00  0.00     0.198 C 
ENDBRANCH   5  10
BRANCH   6  12
ATOM     12  O   UNL     1      21.775 -35.765  17.738  1.00  0.00    -0.385 OA
ATOM     13  H   UNL     1      21.015 -35.837  18.350  1.00  0.00     0.211 HD
ENDBRANCH   6  12
BRANCH   8  14
ATOM     14  O   UNL     1      24.352 -36.082  16.528  1.00  0.00    -0.387 OA
ATOM     15  H   UNL     1      24.514 -37.048  16.524  1.00  0.00     0.211 HD
ENDBRANCH   8  14
BRANCH   9  16
ATOM     16  O   UNL     1      26.565 -35.641  18.227  1.00  0.00    -0.384 OA
ATOM     17  H   UNL     1      27.245 -36.344  18.239  1.00  0.00     0.211 HD
ENDBRANCH   9  16
ENDBRANCH   3   4
ENDBRANCH   1   3
BRANCH   1  18
ATOM     18  C   UNL     1      25.531 -33.596  22.562  1.00  0.00     0.067 A 
ATOM     19  C   UNL     1      26.425 -33.121  23.539  1.00  0.00     0.066 A 
ATOM     20  C   UNL     1      24.146 -33.525  22.783  1.00  0.00     0.066 A 
ATOM     21  C   UNL     1      25.928 -32.580  24.720  1.00  0.00     0.162 A 
ATOM     22  C   UNL     1      23.673 -32.983  23.970  1.00  0.00     0.162 A 
ATOM     23  C   UNL     1      24.556 -32.512  24.934  1.00  0.00     0.200 A 
BRANCH  21  24
ATOM     24  O   UNL     1      26.749 -32.101  25.702  1.00  0.00    -0.504 OA
ATOM     25  H   UNL     1      27.671 -32.302  25.457  1.00  0.00     0.293 HD
ENDBRANCH  21  24
BRANCH  22  26
ATOM     26  O   UNL     1      22.328 -32.916  24.186  1.00  0.00    -0.504 OA
ATOM     27  H   UNL     1      21.964 -33.701  23.727  1.00  0.00     0.293 HD
ENDBRANCH  22  26
BRANCH  23  28
ATOM     28  O   UNL     1      24.056 -31.983  26.093  1.00  0.00    -0.502 OA
ATOM     29  H   UNL     1      24.537 -32.458  26.802  1.00  0.00     0.293 HD
ENDBRANCH  23  28
ENDBRANCH   1  18
TORSDOF 10
ENDMDL
MODEL 3
REMARK VINA RESULT:    -7.213      2.211      4.540
REMARK INTER + INTRA:         -10.806
REMARK INTER:                 -10.014
REMARK INTRA:                  -0.792
REMARK UNBOUND:                -0.642
REMARK SMILES CO[C@H]1OC(OC(=O)c2cc(O)c(O)c(O)c2)[C@H](O)[C@@H](O)[C@@H]1O
REMARK SMILES IDX 7 1 8 2 6 3 5 4 3 5 22 6 4 7 20 8 18 9 2 10 1 11 23 12 21 14
REMARK SMILES IDX 19 16 9 18 17 19 10 20 15 21 11 22 13 23 16 24 12 26 14 28
REMARK H PARENT 23 13 21 15 19 17 16 25 12 27 14 29
ROOT
ATOM      1  C   UNL     1      23.266 -36.012  18.051  1.00  0.00     0.340 C 
ATOM      2  O   UNL     1      22.901 -37.147  17.793  1.00  0.00    -0.246 OA
ENDROOT
BRANCH   1   3
ATOM      3  O   UNL     1      23.312 -35.433  19.273  1.00  0.00    -0.429 OA
BRANCH   3   4
ATOM      4  C   UNL     1      24.341 -35.915  20.153  1.00  0.00     0.345 C 
ATOM      5  C   UNL     1      24.558 -33.787  21.206  1.00  0.00     0.285 C 
ATOM      6  C   UNL     1      23.949 -34.303  22.521  1.00  0.00     0.202 C 
ATOM      7  O   UNL     1      25.221 -34.836  20.508  1.00  0.00    -0.308 OA
ATOM      8  C   UNL     1      23.002 -35.461  22.233  1.00  0.00     0.183 C 
ATOM      9  C   UNL     1      23.718 -36.539  21.420  1.00  0.00     0.215 C 
BRANCH   5  10
ATOM     10  O   UNL     1      25.486 -32.753  21.569  1.00  0.00    -0.353 OA
ATOM     11  C   UNL     1      26.642 -33.282  22.207  1.00  0.00     0.198 C 
ENDBRANCH   5  10
BRANCH   6  12
ATOM     12  O   UNL     1      23.225 -33.270  23.210  1.00  0.00    -0.385 OA
ATOM     13  H   UNL     1      22.471 -33.727  23.634  1.00  0.00     0.211 HD
ENDBRANCH   6  12
BRANCH   8  14
ATOM     14  O   UNL     1      22.533 -36.037  23.466  1.00  0.00    -0.387 OA
ATOM     15  H   UNL     1      22.666 -35.338  24.138  1.00  0.00     0.211 HD
ENDBRANCH   8  14
BRANCH   9  16
ATOM     16  O   UNL     1      22.789 -37.586  21.117  1.00  0.00    -0.384 OA
ATOM     17  H   UNL     1      23.225 -38.121  20.423  1.00  0.00     0.211 HD
ENDBRANCH   9  16
ENDBRANCH   3   4
ENDBRANCH   1   3
BRANCH   1  18
ATOM     18  C   UNL     1      23.741 -35.062  17.009  1.00  0.00     0.067 A 
ATOM     19  C   UNL     1      22.995 -33.887  16.806  1.00  0.00     0.066 A 
ATOM     20  C   UNL     1      24.888 -35.309  16.238  1.00  0.00     0.066 A 
ATOM     21  C   UNL     1      23.402 -32.973  15.841  1.00  0.00     0.162 A 
ATOM     22  C   UNL     1      25.275 -34.382  15.279  1.00  0.00     0.162 A 
ATOM     23  C   UNL     1      24.539 -33.221  15.080  1.00  0.00     0.200 A 
BRANCH  21  24
ATOM     24  O   UNL     1      22.718 -31.814  15.602  1.00  0.00    -0.504 OA
ATOM     25  H   UNL     1      21.940 -32.023  15.053  1.00  0.00     0.293 HD
ENDBRANCH  21  24
BRANCH  22  26
ATOM     26  O   UNL     1      26.388 -34.622  14.528  1.00  0.00    -0.504 OA
ATOM     27  H   UNL     1      27.097 -34.792  15.182  1.00  0.00     0.293 HD
ENDBRANCH  22  26
BRANCH  23  28
ATOM     28  O   UNL     1      24.948 -32.329  14.127  1.00  0.00    -0.502 OA
ATOM     29  H   UNL     1      25.855 -32.620  13.896  1.00  0.00     0.293 HD
ENDBRANCH  23  28
ENDBRANCH   1  18
TORSDOF 10
ENDMDL
MODEL 4
REMARK VINA RESULT:    -7.166      3.671      6.788
REMARK INTER + INTRA:         -10.741
REMARK INTER:                  -9.997
REMARK INTRA:                  -0.743
REMARK UNBOUND:                -0.642
REMARK SMILES CO[C@H]1OC(OC(=O)c2cc(O)c(O)c(O)c2)[C@H](O)[C@@H](O)[C@@H]1O
REMARK SMILES IDX 7 1 8 2 6 3 5 4 3 5 22 6 4 7 20 8 18 9 2 10 1 11 23 12 21 14
REMARK SMILES IDX 19 16 9 18 17 19 10 20 15 21 11 22 13 23 16 24 12 26 14 28
REMARK H PARENT 23 13 21 15 19 17 16 25 12 27 14 29
ROOT
ATOM      1  C   UNL     1      23.567 -35.369  22.406  1.00  0.00     0.340 C 
ATOM      2  O   UNL     1      22.726 -35.928  23.090  1.00  0.00    -0.246 OA
ENDROOT
BRANCH   1   3
ATOM      3  O   UNL     1      23.871 -35.635  21.114  1.00  0.00    -0.429 OA
BRANCH   3   4
ATOM      4  C   UNL     1      22.751 -35.871  20.247  1.00  0.00     0.345 C 
ATOM      5  C   UNL     1      24.075 -35.514  18.297  1.00  0.00     0.285 C 
ATOM      6  C   UNL     1      24.001 -36.998  17.896  1.00  0.00     0.202 C 
ATOM      7  O   UNL     1      22.916 -35.128  19.028  1.00  0.00    -0.308 OA
ATOM      8  C   UNL     1      23.818 -37.861  19.139  1.00  0.00     0.183 C 
ATOM      9  C   UNL     1      22.611 -37.378  19.943  1.00  0.00     0.215 C 
BRANCH   5  10
ATOM     10  O   UNL     1      24.175 -34.770  17.073  1.00  0.00    -0.353 OA
ATOM     11  C   UNL     1      23.003 -34.002  16.825  1.00  0.00     0.198 C 
ENDBRANCH   5  10
BRANCH   6  12
ATOM     12  O   UNL     1      25.190 -37.419  17.209  1.00  0.00    -0.385 OA
ATOM     13  H   UNL     1      25.879 -36.774  17.470  1.00  0.00     0.211 HD
ENDBRANCH   6  12
BRANCH   8  14
ATOM     14  O   UNL     1      23.612 -39.234  18.763  1.00  0.00    -0.387 OA
ATOM     15  H   UNL     1      23.649 -39.734  19.605  1.00  0.00     0.211 HD
ENDBRANCH   8  14
BRANCH   9  16
ATOM     16  O   UNL     1      22.497 -38.169  21.131  1.00  0.00    -0.384 OA
ATOM     17  H   UNL     1      22.721 -37.563  21.865  1.00  0.00     0.211 HD
ENDBRANCH   9  16
ENDBRANCH   3   4
ENDBRANCH   1   3
BRANCH   1  18
ATOM     18  C   UNL     1      24.413 -34.258  22.919  1.00  0.00     0.067 A 
ATOM     19  C   UNL     1      24.334 -33.955  24.291  1.00  0.00     0.066 A 
ATOM     20  C   UNL     1      25.265 -33.518  22.083  1.00  0.00     0.066 A 
ATOM     21  C   UNL     1      25.106 -32.922  24.812  1.00  0.00     0.162 A 
ATOM     22  C   UNL     1      26.025 -32.490  22.626  1.00  0.00     0.162 A 
ATOM     23  C   UNL     1      25.948 -32.193  23.981  1.00  0.00     0.200 A 
BRANCH  21  24
ATOM     24  O   UNL     1      25.071 -32.586  26.136  1.00  0.00    -0.504 OA
ATOM     25  H   UNL     1      24.473 -33.204  26.595  1.00  0.00     0.293 HD
ENDBRANCH  21  24
BRANCH  22  26
ATOM     26  O   UNL     1      26.852 -31.770  21.814  1.00  0.00    -0.504 OA
ATOM     27  H   UNL     1      27.713 -32.233  21.863  1.00  0.00     0.293 HD
ENDBRANCH  22  26
BRANCH  23  28
ATOM     28  O   UNL     1      26.711 -31.174  24.482  1.00  0.00    -0.502 OA
ATOM     29  H   UNL     1      27.498 -31.151  23.899  1.00  0.00     0.293 HD
ENDBRANCH  23  28
ENDBRANCH   1  18
TORSDOF 10
ENDMDL
MODEL 5
REMARK VINA RESULT:    -7.024      1.947      6.320
REMARK INTER + INTRA:         -10.540
REMARK INTER:                  -9.832
REMARK INTRA:                  -0.708
REMARK UNBOUND:                -0.642
REMARK SMILES CO[C@H]1OC(OC(=O)c2cc(O)c(O)c(O)c2)[C@H](O)[C@@H](O)[C@@H]1O
REMARK SMILES IDX 7 1 8 2 6 3 5 4 3 5 22 6 4 7 20 8 18 9 2 10 1 11 23 12 21 14
REMARK SMILES IDX 19 16 9 18 17 19 10 20 15 21 11 22 13 23 16 24 12 26 14 28
REMARK H PARENT 23 13 21 15 19 17 16 25 12 27 14 29
ROOT
ATOM      1  C   UNL     1      23.392 -34.488  17.283  1.00  0.00     0.340 C 
ATOM      2  O   UNL     1      22.457 -33.993  16.675  1.00  0.00    -0.246 OA
ENDROOT
BRANCH   1   3
ATOM      3  O   UNL     1      24.644 -34.699  16.814  1.00  0.00    -0.429 OA
BRANCH   3   4
ATOM      4  C   UNL     1      24.740 -35.529  15.645  1.00  0.00     0.345 C 
ATOM      5  C   UNL     1      26.641 -34.332  14.846  1.00  0.00     0.285 C 
ATOM      6  C   UNL     1      27.580 -35.523  15.102  1.00  0.00     0.202 C 
ATOM      7  O   UNL     1      25.319 -34.780  14.564  1.00  0.00    -0.308 OA
ATOM      8  C   UNL     1      27.032 -36.379  16.238  1.00  0.00     0.183 C 
ATOM      9  C   UNL     1      25.588 -36.784  15.944  1.00  0.00     0.215 C 
BRANCH   5  10
ATOM     10  O   UNL     1      27.186 -33.622  13.722  1.00  0.00    -0.353 OA
ATOM     11  C   UNL     1      26.379 -32.509  13.359  1.00  0.00     0.198 C 
ENDBRANCH   5  10
BRANCH   6  12
ATOM     12  O   UNL     1      28.905 -35.087  15.446  1.00  0.00    -0.385 OA
ATOM     13  H   UNL     1      28.828 -34.121  15.584  1.00  0.00     0.211 HD
ENDBRANCH   6  12
BRANCH   8  14
ATOM     14  O   UNL     1      27.830 -37.566  16.394  1.00  0.00    -0.387 OA
ATOM     15  H   UNL     1      27.790 -37.773  17.351  1.00  0.00     0.211 HD
ENDBRANCH   8  14
BRANCH   9  16
ATOM     16  O   UNL     1      25.082 -37.538  17.052  1.00  0.00    -0.384 OA
ATOM     17  H   UNL     1      25.875 -37.876  17.514  1.00  0.00     0.211 HD
ENDBRANCH   9  16
ENDBRANCH   3   4
ENDBRANCH   1   3
BRANCH   1  18
ATOM     18  C   UNL     1      23.284 -34.944  18.694  1.00  0.00     0.067 A 
ATOM     19  C   UNL     1      24.103 -34.315  19.650  1.00  0.00     0.066 A 
ATOM     20  C   UNL     1      22.407 -35.968  19.085  1.00  0.00     0.066 A 
ATOM     21  C   UNL     1      24.036 -34.712  20.981  1.00  0.00     0.162 A 
ATOM     22  C   UNL     1      22.358 -36.349  20.420  1.00  0.00     0.162 A 
ATOM     23  C   UNL     1      23.166 -35.726  21.363  1.00  0.00     0.200 A 
BRANCH  21  24
ATOM     24  O   UNL     1      24.806 -34.134  21.951  1.00  0.00    -0.504 OA
ATOM     25  H   UNL     1      25.743 -34.234  21.701  1.00  0.00     0.293 HD
ENDBRANCH  21  24
BRANCH  22  26
ATOM     26  O   UNL     1      21.508 -37.346  20.800  1.00  0.00    -0.504 OA
ATOM     27  H   UNL     1      22.083 -38.127  20.932  1.00  0.00     0.293 HD
ENDBRANCH  22  26
BRANCH  23  28
ATOM     28  O   UNL     1      23.092 -36.126  22.670  1.00  0.00    -0.502 OA
ATOM     29  H   UNL     1      22.192 -35.863  22.953  1.00  0.00     0.293 HD
ENDBRANCH  23  28
ENDBRANCH   1  18
TORSDOF 10
ENDMDL
MODEL 6
REMARK VINA RESULT:    -7.016      1.518      3.598
REMARK INTER + INTRA:         -10.529
REMARK INTER:                  -9.675
REMARK INTRA:                  -0.854
REMARK UNBOUND:                -0.642
REMARK SMILES CO[C@H]1OC(OC(=O)c2cc(O)c(O)c(O)c2)[C@H](O)[C@@H](O)[C@@H]1O
REMARK SMILES IDX 7 1 8 2 6 3 5 4 3 5 22 6 4 7 20 8 18 9 2 10 1 11 23 12 21 14
REMARK SMILES IDX 19 16 9 18 17 19 10 20 15 21 11 22 13 23 16 24 12 26 14 28
REMARK H PARENT 23 13 21 15 19 17 16 25 12 27 14 29
ROOT
ATOM      1  C   UNL     1      25.613 -36.325  15.703  1.00  0.00     0.340 C 
ATOM      2  O   UNL     1      26.256 -37.249  15.232  1.00  0.00    -0.246 OA
ENDROOT
BRANCH   1   3
ATOM      3  O   UNL     1      24.821 -36.363  16.800  1.00  0.00    -0.429 OA
BRANCH   3   4
ATOM      4  C   UNL     1      25.457 -36.795  18.013  1.00  0.00     0.345 C 
ATOM      5  C   UNL     1      23.850 -35.662  19.361  1.00  0.00     0.285 C 
ATOM      6  C   UNL     1      23.237 -36.985  19.855  1.00  0.00     0.202 C 
ATOM      7  O   UNL     1      25.230 -35.828  19.051  1.00  0.00    -0.308 OA
ATOM      8  C   UNL     1      23.442 -38.073  18.808  1.00  0.00     0.183 C 
ATOM      9  C   UNL     1      24.922 -38.178  18.440  1.00  0.00     0.215 C 
BRANCH   5  10
ATOM     10  O   UNL     1      23.679 -34.715  20.427  1.00  0.00    -0.353 OA
ATOM     11  C   UNL     1      24.639 -34.905  21.460  1.00  0.00     0.198 C 
ENDBRANCH   5  10
BRANCH   6  12
ATOM     12  O   UNL     1      21.831 -36.850  20.116  1.00  0.00    -0.385 OA
ATOM     13  H   UNL     1      21.444 -37.719  19.884  1.00  0.00     0.211 HD
ENDBRANCH   6  12
BRANCH   8  14
ATOM     14  O   UNL     1      22.995 -39.342  19.317  1.00  0.00    -0.387 OA
ATOM     15  H   UNL     1      23.492 -39.469  20.151  1.00  0.00     0.211 HD
ENDBRANCH   8  14
BRANCH   9  16
ATOM     16  O   UNL     1      25.077 -39.167  17.416  1.00  0.00    -0.384 OA
ATOM     17  H   UNL     1      25.498 -39.931  17.860  1.00  0.00     0.211 HD
ENDBRANCH   9  16
ENDBRANCH   3   4
ENDBRANCH   1   3
BRANCH   1  18
ATOM     18  C   UNL     1      25.614 -34.960  15.112  1.00  0.00     0.067 A 
ATOM     19  C   UNL     1      24.572 -34.088  15.477  1.00  0.00     0.066 A 
ATOM     20  C   UNL     1      26.607 -34.532  14.216  1.00  0.00     0.066 A 
ATOM     21  C   UNL     1      24.534 -32.803  14.947  1.00  0.00     0.162 A 
ATOM     22  C   UNL     1      26.548 -33.245  13.699  1.00  0.00     0.162 A 
ATOM     23  C   UNL     1      25.519 -32.384  14.060  1.00  0.00     0.200 A 
BRANCH  21  24
ATOM     24  O   UNL     1      23.547 -31.913  15.267  1.00  0.00    -0.504 OA
ATOM     25  H   UNL     1      23.408 -31.942  16.232  1.00  0.00     0.293 HD
ENDBRANCH  21  24
BRANCH  22  26
ATOM     26  O   UNL     1      27.511 -32.830  12.826  1.00  0.00    -0.504 OA
ATOM     27  H   UNL     1      27.997 -32.129  13.307  1.00  0.00     0.293 HD
ENDBRANCH  22  26
BRANCH  23  28
ATOM     28  O   UNL     1      25.491 -31.122  13.532  1.00  0.00    -0.502 OA
ATOM     29  H   UNL     1      26.086 -30.603  14.112  1.00  0.00     0.293 HD
ENDBRANCH  23  28
ENDBRANCH   1  18
TORSDOF 10
ENDMDL
MODEL 7
REMARK VINA RESULT:    -6.993      2.929      4.938
REMARK INTER + INTRA:         -10.497
REMARK INTER:                  -9.698
REMARK INTRA:                  -0.799
REMARK UNBOUND:                -0.642
REMARK SMILES CO[C@H]1OC(OC(=O)c2cc(O)c(O)c(O)c2)[C@H](O)[C@@H](O)[C@@H]1O
REMARK SMILES IDX 7 1 8 2 6 3 5 4 3 5 22 6 4 7 20 8 18 9 2 10 1 11 23 12 21 14
REMARK SMILES IDX 19 16 9 18 17 19 10 20 15 21 11 22 13 23 16 24 12 26 14 28
REMARK H PARENT 23 13 21 15 19 17 16 25 12 27 14 29
ROOT
ATOM      1  C   UNL     1      23.215 -35.404  19.559  1.00  0.00     0.340 C 
ATOM      2  O   UNL     1      22.504 -36.364  19.804  1.00  0.00    -0.246 OA
ENDROOT
BRANCH   1   3
ATOM      3  O   UNL     1      23.733 -34.528  20.452  1.00  0.00    -0.429 OA
BRANCH   3   4
ATOM      4  C   UNL     1      24.428 -35.111  21.565  1.00  0.00     0.345 C 
ATOM      5  C   UNL     1      26.505 -34.167  20.873  1.00  0.00     0.285 C 
ATOM      6  C   UNL     1      26.534 -33.194  22.066  1.00  0.00     0.202 C 
ATOM      7  O   UNL     1      25.798 -35.357  21.207  1.00  0.00    -0.308 OA
ATOM      8  C   UNL     1      25.111 -32.885  22.516  1.00  0.00     0.183 C 
ATOM      9  C   UNL     1      24.353 -34.182  22.796  1.00  0.00     0.215 C 
BRANCH   5  10
ATOM     10  O   UNL     1      27.875 -34.461  20.560  1.00  0.00    -0.353 OA
ATOM     11  C   UNL     1      27.986 -35.301  19.417  1.00  0.00     0.198 C 
ENDBRANCH   5  10
BRANCH   6  12
ATOM     12  O   UNL     1      27.193 -31.963  21.727  1.00  0.00    -0.385 OA
ATOM     13  H   UNL     1      26.529 -31.448  21.226  1.00  0.00     0.211 HD
ENDBRANCH   6  12
BRANCH   8  14
ATOM     14  O   UNL     1      25.132 -32.086  23.712  1.00  0.00    -0.387 OA
ATOM     15  H   UNL     1      26.073 -31.845  23.839  1.00  0.00     0.211 HD
ENDBRANCH   8  14
BRANCH   9  16
ATOM     16  O   UNL     1      23.005 -33.863  23.161  1.00  0.00    -0.384 OA
ATOM     17  H   UNL     1      22.598 -33.503  22.348  1.00  0.00     0.211 HD
ENDBRANCH   9  16
ENDBRANCH   3   4
ENDBRANCH   1   3
BRANCH   1  18
ATOM     18  C   UNL     1      23.640 -35.047  18.179  1.00  0.00     0.067 A 
ATOM     19  C   UNL     1      22.908 -34.051  17.506  1.00  0.00     0.066 A 
ATOM     20  C   UNL     1      24.726 -35.671  17.544  1.00  0.00     0.066 A 
ATOM     21  C   UNL     1      23.269 -33.689  16.213  1.00  0.00     0.162 A 
ATOM     22  C   UNL     1      25.067 -35.293  16.252  1.00  0.00     0.162 A 
ATOM     23  C   UNL     1      24.345 -34.309  15.589  1.00  0.00     0.200 A 
BRANCH  21  24
ATOM     24  O   UNL     1      22.596 -32.727  15.513  1.00  0.00    -0.504 OA
ATOM     25  H   UNL     1      21.644 -32.933  15.544  1.00  0.00     0.293 HD
ENDBRANCH  21  24
BRANCH  22  26
ATOM     26  O   UNL     1      26.121 -35.901  15.635  1.00  0.00    -0.504 OA
ATOM     27  H   UNL     1      26.054 -36.842  15.899  1.00  0.00     0.293 HD
ENDBRANCH  22  26
BRANCH  23  28
ATOM     28  O   UNL     1      24.709 -33.961  14.317  1.00  0.00    -0.502 OA
ATOM     29  H   UNL     1      23.895 -33.575  13.930  1.00  0.00     0.293 HD
ENDBRANCH  23  28
ENDBRANCH   1  18
TORSDOF 10
ENDMDL
MODEL 8
REMARK VINA RESULT:    -6.953      2.661      6.246
REMARK INTER + INTRA:         -10.440
REMARK INTER:                  -9.603
REMARK INTRA:                  -0.837
REMARK UNBOUND:                -0.642
REMARK SMILES CO[C@H]1OC(OC(=O)c2cc(O)c(O)c(O)c2)[C@H](O)[C@@H](O)[C@@H]1O
REMARK SMILES IDX 7 1 8 2 6 3 5 4 3 5 22 6 4 7 20 8 18 9 2 10 1 11 23 12 21 14
REMARK SMILES IDX 19 16 9 18 17 19 10 20 15 21 11 22 13 23 16 24 12 26 14 28
REMARK H PARENT 23 13 21 15 19 17 16 25 12 27 14 29
ROOT
ATOM      1  C   UNL     1      23.617 -36.957  20.911  1.00  0.00     0.340 C 
ATOM      2  O   UNL     1      22.841 -37.741  21.432  1.00  0.00    -0.246 OA
ENDROOT
BRANCH   1   3
ATOM      3  O   UNL     1      24.217 -37.090  19.705  1.00  0.00    -0.429 OA
BRANCH   3   4
ATOM      4  C   UNL     1      23.335 -37.172  18.575  1.00  0.00     0.345 C 
ATOM      5  C   UNL     1      25.030 -36.404  17.085  1.00  0.00     0.285 C 
ATOM      6  C   UNL     1      25.146 -37.779  16.405  1.00  0.00     0.202 C 
ATOM      7  O   UNL     1      23.715 -36.197  17.590  1.00  0.00    -0.308 OA
ATOM      8  C   UNL     1      24.751 -38.877  17.386  1.00  0.00     0.183 C 
ATOM      9  C   UNL     1      23.367 -38.591  17.968  1.00  0.00     0.215 C 
BRANCH   5  10
ATOM     10  O   UNL     1      25.347 -35.428  16.080  1.00  0.00    -0.353 OA
ATOM     11  C   UNL     1      24.335 -34.435  15.971  1.00  0.00     0.198 C 
ENDBRANCH   5  10
BRANCH   6  12
ATOM     12  O   UNL     1      26.483 -38.029  15.942  1.00  0.00    -0.385 OA
ATOM     13  H   UNL     1      26.515 -38.990  15.760  1.00  0.00     0.211 HD
ENDBRANCH   6  12
BRANCH   8  14
ATOM     14  O   UNL     1      24.725 -40.152  16.720  1.00  0.00    -0.387 OA
ATOM     15  H   UNL     1      24.585 -39.940  15.774  1.00  0.00     0.211 HD
ENDBRANCH   8  14
BRANCH   9  16
ATOM     16  O   UNL     1      23.047 -39.606  18.926  1.00  0.00    -0.384 OA
ATOM     17  H   UNL     1      23.776 -39.582  19.577  1.00  0.00     0.211 HD
ENDBRANCH   9  16
ENDBRANCH   3   4
ENDBRANCH   1   3
BRANCH   1  18
ATOM     18  C   UNL     1      24.025 -35.679  21.555  1.00  0.00     0.067 A 
ATOM     19  C   UNL     1      25.192 -35.051  21.081  1.00  0.00     0.066 A 
ATOM     20  C   UNL     1      23.292 -35.102  22.604  1.00  0.00     0.066 A 
ATOM     21  C   UNL     1      25.611 -33.857  21.656  1.00  0.00     0.162 A 
ATOM     22  C   UNL     1      23.731 -33.909  23.164  1.00  0.00     0.162 A 
ATOM     23  C   UNL     1      24.881 -33.289  22.694  1.00  0.00     0.200 A 
BRANCH  21  24
ATOM     24  O   UNL     1      26.733 -33.202  21.234  1.00  0.00    -0.504 OA
ATOM     25  H   UNL     1      27.297 -33.835  20.754  1.00  0.00     0.293 HD
ENDBRANCH  21  24
BRANCH  22  26
ATOM     26  O   UNL     1      23.020 -33.349  24.185  1.00  0.00    -0.504 OA
ATOM     27  H   UNL     1      23.655 -32.750  24.629  1.00  0.00     0.293 HD
ENDBRANCH  22  26
BRANCH  23  28
ATOM     28  O   UNL     1      25.285 -32.114  23.268  1.00  0.00    -0.502 OA
ATOM     29  H   UNL     1      26.226 -32.029  23.009  1.00  0.00     0.293 HD
ENDBRANCH  23  28
ENDBRANCH   1  18
TORSDOF 10
ENDMDL
MODEL 9
REMARK VINA RESULT:    -6.919      2.670      6.306
REMARK INTER + INTRA:         -10.393
REMARK INTER:                  -9.564
REMARK INTRA:                  -0.829
REMARK UNBOUND:                -0.642
REMARK SMILES CO[C@H]1OC(OC(=O)c2cc(O)c(O)c(O)c2)[C@H](O)[C@@H](O)[C@@H]1O
REMARK SMILES IDX 7 1 8 2 6 3 5 4 3 5 22 6 4 7 20 8 18 9 2 10 1 11 23 12 21 14
REMARK SMILES IDX 19 16 9 18 17 19 10 20 15 21 11 22 13 23 16 24 12 26 14 28
REMARK H PARENT 23 13 21 15 19 17 16 25 12 27 14 29
ROOT
ATOM      1  C   UNL     1      23.659 -36.975  20.940  1.00  0.00     0.340 C 
ATOM      2  O   UNL     1      22.876 -37.736  21.485  1.00  0.00    -0.246 OA
ENDROOT
BRANCH   1   3
ATOM      3  O   UNL     1      24.240 -37.141  19.728  1.00  0.00    -0.429 OA
BRANCH   3   4
ATOM      4  C   UNL     1      23.344 -37.168  18.606  1.00  0.00     0.345 C 
ATOM      5  C   UNL     1      25.047 -36.411  17.119  1.00  0.00     0.285 C 
ATOM      6  C   UNL     1      25.116 -37.771  16.402  1.00  0.00     0.202 C 
ATOM      7  O   UNL     1      23.743 -36.179  17.642  1.00  0.00    -0.308 OA
ATOM      8  C   UNL     1      24.698 -38.881  17.358  1.00  0.00     0.183 C 
ATOM      9  C   UNL     1      23.329 -38.571  17.962  1.00  0.00     0.215 C 
BRANCH   5  10
ATOM     10  O   UNL     1      25.383 -35.419  16.135  1.00  0.00    -0.353 OA
ATOM     11  C   UNL     1      24.331 -34.478  15.955  1.00  0.00     0.198 C 
ENDBRANCH   5  10
BRANCH   6  12
ATOM     12  O   UNL     1      26.440 -38.047  15.918  1.00  0.00    -0.385 OA
ATOM     13  H   UNL     1      26.387 -38.943  15.527  1.00  0.00     0.211 HD
ENDBRANCH   6  12
BRANCH   8  14
ATOM     14  O   UNL     1      24.629 -40.137  16.660  1.00  0.00    -0.387 OA
ATOM     15  H   UNL     1      24.795 -40.817  17.345  1.00  0.00     0.211 HD
ENDBRANCH   8  14
BRANCH   9  16
ATOM     16  O   UNL     1      22.989 -39.601  18.897  1.00  0.00    -0.384 OA
ATOM     17  H   UNL     1      22.786 -39.132  19.731  1.00  0.00     0.211 HD
ENDBRANCH   9  16
ENDBRANCH   3   4
ENDBRANCH   1   3
BRANCH   1  18
ATOM     18  C   UNL     1      24.100 -35.695  21.556  1.00  0.00     0.067 A 
ATOM     19  C   UNL     1      23.310 -35.160  22.589  1.00  0.00     0.066 A 
ATOM     20  C   UNL     1      25.258 -35.022  21.135  1.00  0.00     0.066 A 
ATOM     21  C   UNL     1      23.684 -33.964  23.192  1.00  0.00     0.162 A 
ATOM     22  C   UNL     1      25.611 -33.828  21.751  1.00  0.00     0.162 A 
ATOM     23  C   UNL     1      24.832 -33.301  22.772  1.00  0.00     0.200 A 
BRANCH  21  24
ATOM     24  O   UNL     1      22.957 -33.400  24.202  1.00  0.00    -0.504 OA
ATOM     25  H   UNL     1      22.273 -34.036  24.481  1.00  0.00     0.293 HD
ENDBRANCH  21  24
BRANCH  22  26
ATOM     26  O   UNL     1      26.735 -33.172  21.341  1.00  0.00    -0.504 OA
ATOM     27  H   UNL     1      26.455 -32.671  20.547  1.00  0.00     0.293 HD
ENDBRANCH  22  26
BRANCH  23  28
ATOM     28  O   UNL     1      25.209 -32.123  23.357  1.00  0.00    -0.502 OA
ATOM     29  H   UNL     1      25.876 -31.751  22.743  1.00  0.00     0.293 HD
ENDBRANCH  23  28
ENDBRANCH   1  18
TORSDOF 10
ENDMDL
