MODEL 1
REMARK VINA RESULT:    -7.401      0.000      0.000
REMARK INTER + INTRA:         -11.072
REMARK INTER:                 -10.430
REMARK INTRA:                  -0.642
REMARK UNBOUND:                -0.642
REMARK SMILES CO[C@H]1OC(OC(=O)c2cc(O)c(O)c(O)c2)[C@H](O)[C@@H](O)[C@@H]1O
REMARK SMILES IDX 7 1 8 2 6 3 5 4 3 5 22 6 4 7 20 8 18 9 2 10 1 11 23 12 21 14
REMARK SMILES IDX 19 16 9 18 17 19 10 20 15 21 11 22 13 23 16 24 12 26 14 28
REMARK H PARENT 23 13 21 15 19 17 16 25 12 27 14 29
ROOT
ATOM      1  C   UNL     1      23.608 -34.199  16.497  1.00  0.00     0.340 C 
ATOM      2  O   UNL     1      22.537 -33.615  16.438  1.00  0.00    -0.246 OA
ENDROOT
BRANCH   1   3
ATOM      3  O   UNL     1      23.968 -35.143  17.396  1.00  0.00    -0.429 OA
BRANCH   3   4
ATOM      4  C   UNL     1      22.894 -35.733  18.146  1.00  0.00     0.345 C 
ATOM      5  C   UNL     1      23.555 -37.938  17.523  1.00  0.00     0.285 C 
ATOM      6  C   UNL     1      24.011 -38.275  18.953  1.00  0.00     0.202 C 
ATOM      7  O   UNL     1      22.504 -36.976  17.539  1.00  0.00    -0.308 OA
ATOM      8  C   UNL     1      24.438 -37.001  19.673  1.00  0.00     0.183 C 
ATOM      9  C   UNL     1      23.321 -35.960  19.612  1.00  0.00     0.215 C 
BRANCH   5  10
ATOM     10  O   UNL     1      23.104 -39.171  16.942  1.00  0.00    -0.353 OA
ATOM     11  C   UNL     1      23.873 -39.529  15.800  1.00  0.00     0.198 C 
ENDBRANCH   5  10
BRANCH   6  12
ATOM     12  O   UNL     1      25.111 -39.199  18.952  1.00  0.00    -0.385 OA
ATOM     13  H   UNL     1      24.771 -40.000  18.503  1.00  0.00     0.211 HD
ENDBRANCH   6  12
BRANCH   8  14
ATOM     14  O   UNL     1      24.737 -37.287  21.051  1.00  0.00    -0.387 OA
ATOM     15  H   UNL     1      24.377 -36.526  21.551  1.00  0.00     0.211 HD
ENDBRANCH   8  14
BRANCH   9  16
ATOM     16  O   UNL     1      23.770 -34.758  20.246  1.00  0.00    -0.384 OA
ATOM     17  H   UNL     1      24.579 -35.013  20.733  1.00  0.00     0.211 HD
ENDBRANCH   9  16
ENDBRANCH   3   4
ENDBRANCH   1   3
BRANCH   1  18
ATOM     18  C   UNL     1      24.716 -33.946  15.537  1.00  0.00     0.067 A 
ATOM     19  C   UNL     1      25.748 -34.900  15.465  1.00  0.00     0.066 A 
ATOM     20  C   UNL     1      24.757 -32.803  14.724  1.00  0.00     0.066 A 
ATOM     21  C   UNL     1      26.805 -34.703  14.583  1.00  0.00     0.162 A 
ATOM     22  C   UNL     1      25.823 -32.626  13.852  1.00  0.00     0.162 A 
ATOM     23  C   UNL     1      26.841 -33.569  13.780  1.00  0.00     0.200 A 
BRANCH  21  24
ATOM     24  O   UNL     1      27.832 -35.596  14.468  1.00  0.00    -0.504 OA
ATOM     25  H   UNL     1      27.532 -36.342  13.916  1.00  0.00     0.293 HD
ENDBRANCH  21  24
BRANCH  22  26
ATOM     26  O   UNL     1      25.864 -31.514  13.064  1.00  0.00    -0.504 OA
ATOM     27  H   UNL     1      24.956 -31.426  12.710  1.00  0.00     0.293 HD
ENDBRANCH  22  26
BRANCH  23  28
ATOM     28  O   UNL     1      27.876 -33.364  12.909  1.00  0.00    -0.502 OA
ATOM     29  H   UNL     1      28.659 -33.245  13.487  1.00  0.00     0.293 HD
ENDBRANCH  23  28
ENDBRANCH   1  18
TORSDOF 10
ENDMDL
MODEL 2
REMARK VINA RESULT:    -7.253      2.195      4.264
REMARK INTER + INTRA:         -10.864
REMARK INTER:                 -10.083
REMARK INTRA:                  -0.781
REMARK UNBOUND:                -0.642
REMARK SMILES CO[C@H]1OC(OC(=O)c2cc(O)c(O)c(O)c2)[C@H](O)[C@@H](O)[C@@H]1O
REMARK SMILES IDX 7 1 8 2 6 3 5 4 3 5 22 6 4 7 20 8 18 9 2 10 1 11 23 12 21 14
REMARK SMILES IDX 19 16 9 18 17 19 10 20 15 21 11 22 13 23 16 24 12 26 14 28
REMARK H PARENT 23 13 21 15 19 17 16 25 12 27 14 29
ROOT
ATOM      1  C   UNL     1      23.239 -36.138  18.037  1.00  0.00     0.340 C 
ATOM      2  O   UNL     1      22.930 -37.280  17.739  1.00  0.00    -0.246 OA
ENDROOT
BRANCH   1   3
ATOM      3  O   UNL     1      23.264 -35.603  19.280  1.00  0.00    -0.429 OA
BRANCH   3   4
ATOM      4  C   UNL     1      24.325 -36.060  20.134  1.00  0.00     0.345 C 
ATOM      5  C   UNL     1      24.658 -33.876  21.033  1.00  0.00     0.285 C 
ATOM      6  C   UNL     1      24.109 -34.289  22.409  1.00  0.00     0.202 C 
ATOM      7  O   UNL     1      25.253 -34.988  20.371  1.00  0.00    -0.308 OA
ATOM      8  C   UNL     1      23.115 -35.433  22.248  1.00  0.00     0.183 C 
ATOM      9  C   UNL     1      23.756 -36.582  21.470  1.00  0.00     0.215 C 
BRANCH   5  10
ATOM     10  O   UNL     1      25.633 -32.851  21.278  1.00  0.00    -0.353 OA
ATOM     11  C   UNL     1      26.799 -33.370  21.907  1.00  0.00     0.198 C 
ENDBRANCH   5  10
BRANCH   6  12
ATOM     12  O   UNL     1      23.452 -33.193  23.066  1.00  0.00    -0.385 OA
ATOM     13  H   UNL     1      22.526 -33.224  22.752  1.00  0.00     0.211 HD
ENDBRANCH   6  12
BRANCH   8  14
ATOM     14  O   UNL     1      22.699 -35.915  23.538  1.00  0.00    -0.387 OA
ATOM     15  H   UNL     1      21.757 -35.659  23.612  1.00  0.00     0.211 HD
ENDBRANCH   8  14
BRANCH   9  16
ATOM     16  O   UNL     1      22.783 -37.617  21.285  1.00  0.00    -0.384 OA
ATOM     17  H   UNL     1      22.045 -37.192  20.804  1.00  0.00     0.211 HD
ENDBRANCH   9  16
ENDBRANCH   3   4
ENDBRANCH   1   3
BRANCH   1  18
ATOM     18  C   UNL     1      23.658 -35.127  17.030  1.00  0.00     0.067 A 
ATOM     19  C   UNL     1      24.809 -35.401  16.269  1.00  0.00     0.066 A 
ATOM     20  C   UNL     1      22.950 -33.931  16.829  1.00  0.00     0.066 A 
ATOM     21  C   UNL     1      25.239 -34.482  15.317  1.00  0.00     0.162 A 
ATOM     22  C   UNL     1      23.399 -33.029  15.873  1.00  0.00     0.162 A 
ATOM     23  C   UNL     1      24.534 -33.300  15.121  1.00  0.00     0.200 A 
BRANCH  21  24
ATOM     24  O   UNL     1      26.347 -34.697  14.548  1.00  0.00    -0.504 OA
ATOM     25  H   UNL     1      26.906 -33.899  14.584  1.00  0.00     0.293 HD
ENDBRANCH  21  24
BRANCH  22  26
ATOM     26  O   UNL     1      22.712 -31.866  15.679  1.00  0.00    -0.504 OA
ATOM     27  H   UNL     1      21.777 -32.097  15.853  1.00  0.00     0.293 HD
ENDBRANCH  22  26
BRANCH  23  28
ATOM     28  O   UNL     1      24.948 -32.389  14.188  1.00  0.00    -0.502 OA
ATOM     29  H   UNL     1      25.709 -31.939  14.610  1.00  0.00     0.293 HD
ENDBRANCH  23  28
ENDBRANCH   1  18
TORSDOF 10
ENDMDL
MODEL 3
REMARK VINA RESULT:    -7.234      3.940      7.419
REMARK INTER + INTRA:         -10.837
REMARK INTER:                 -10.022
REMARK INTRA:                  -0.815
REMARK UNBOUND:                -0.642
REMARK SMILES CO[C@H]1OC(OC(=O)c2cc(O)c(O)c(O)c2)[C@H](O)[C@@H](O)[C@@H]1O
REMARK SMILES IDX 7 1 8 2 6 3 5 4 3 5 22 6 4 7 20 8 18 9 2 10 1 11 23 12 21 14
REMARK SMILES IDX 19 16 9 18 17 19 10 20 15 21 11 22 13 23 16 24 12 26 14 28
REMARK H PARENT 23 13 21 15 19 17 16 25 12 27 14 29
ROOT
ATOM      1  C   UNL     1      26.140 -34.179  21.294  1.00  0.00     0.340 C 
ATOM      2  O   UNL     1      27.328 -34.219  21.018  1.00  0.00    -0.246 OA
ENDROOT
BRANCH   1   3
ATOM      3  O   UNL     1      25.116 -34.640  20.539  1.00  0.00    -0.429 OA
BRANCH   3   4
ATOM      4  C   UNL     1      25.113 -36.055  20.291  1.00  0.00     0.345 C 
ATOM      5  C   UNL     1      22.748 -36.084  19.989  1.00  0.00     0.285 C 
ATOM      6  C   UNL     1      22.878 -36.371  18.483  1.00  0.00     0.202 C 
ATOM      7  O   UNL     1      23.857 -36.618  20.705  1.00  0.00    -0.308 OA
ATOM      8  C   UNL     1      24.195 -35.809  17.962  1.00  0.00     0.183 C 
ATOM      9  C   UNL     1      25.362 -36.340  18.794  1.00  0.00     0.215 C 
BRANCH   5  10
ATOM     10  O   UNL     1      21.524 -36.704  20.414  1.00  0.00    -0.353 OA
ATOM     11  C   UNL     1      21.751 -37.688  21.415  1.00  0.00     0.198 C 
ENDBRANCH   5  10
BRANCH   6  12
ATOM     12  O   UNL     1      21.797 -35.788  17.739  1.00  0.00    -0.385 OA
ATOM     13  H   UNL     1      22.114 -34.897  17.483  1.00  0.00     0.211 HD
ENDBRANCH   6  12
BRANCH   8  14
ATOM     14  O   UNL     1      24.388 -36.190  16.588  1.00  0.00    -0.387 OA
ATOM     15  H   UNL     1      25.298 -35.902  16.371  1.00  0.00     0.211 HD
ENDBRANCH   8  14
BRANCH   9  16
ATOM     16  O   UNL     1      26.578 -35.753  18.318  1.00  0.00    -0.384 OA
ATOM     17  H   UNL     1      26.547 -34.822  18.617  1.00  0.00     0.211 HD
ENDBRANCH   9  16
ENDBRANCH   3   4
ENDBRANCH   1   3
BRANCH   1  18
ATOM     18  C   UNL     1      25.628 -33.597  22.563  1.00  0.00     0.067 A 
ATOM     19  C   UNL     1      24.233 -33.545  22.743  1.00  0.00     0.066 A 
ATOM     20  C   UNL     1      26.484 -33.104  23.561  1.00  0.00     0.066 A 
ATOM     21  C   UNL     1      23.711 -33.007  23.914  1.00  0.00     0.162 A 
ATOM     22  C   UNL     1      25.940 -32.570  24.721  1.00  0.00     0.162 A 
ATOM     23  C   UNL     1      24.563 -32.521  24.899  1.00  0.00     0.200 A 
BRANCH  21  24
ATOM     24  O   UNL     1      22.366 -32.934  24.144  1.00  0.00    -0.504 OA
ATOM     25  H   UNL     1      22.140 -32.010  24.358  1.00  0.00     0.293 HD
ENDBRANCH  21  24
BRANCH  22  26
ATOM     26  O   UNL     1      26.772 -32.090  25.690  1.00  0.00    -0.504 OA
ATOM     27  H   UNL     1      26.795 -32.795  26.370  1.00  0.00     0.293 HD
ENDBRANCH  22  26
BRANCH  23  28
ATOM     28  O   UNL     1      24.060 -31.988  26.055  1.00  0.00    -0.502 OA
ATOM     29  H   UNL     1      24.853 -31.702  26.555  1.00  0.00     0.293 HD
ENDBRANCH  23  28
ENDBRANCH   1  18
TORSDOF 10
ENDMDL
MODEL 4
REMARK VINA RESULT:    -7.222      2.216      4.536
REMARK INTER + INTRA:         -10.819
REMARK INTER:                 -10.048
REMARK INTRA:                  -0.772
REMARK UNBOUND:                -0.642
REMARK SMILES CO[C@H]1OC(OC(=O)c2cc(O)c(O)c(O)c2)[C@H](O)[C@@H](O)[C@@H]1O
REMARK SMILES IDX 7 1 8 2 6 3 5 4 3 5 22 6 4 7 20 8 18 9 2 10 1 11 23 12 21 14
REMARK SMILES IDX 19 16 9 18 17 19 10 20 15 21 11 22 13 23 16 24 12 26 14 28
REMARK H PARENT 23 13 21 15 19 17 16 25 12 27 14 29
ROOT
ATOM      1  C   UNL     1      23.307 -36.022  18.036  1.00  0.00     0.340 C 
ATOM      2  O   UNL     1      22.929 -37.150  17.764  1.00  0.00    -0.246 OA
ENDROOT
BRANCH   1   3
ATOM      3  O   UNL     1      23.369 -35.461  19.266  1.00  0.00    -0.429 OA
BRANCH   3   4
ATOM      4  C   UNL     1      24.435 -35.926  20.109  1.00  0.00     0.345 C 
ATOM      5  C   UNL     1      24.709 -33.772  21.095  1.00  0.00     0.285 C 
ATOM      6  C   UNL     1      24.161 -34.251  22.450  1.00  0.00     0.202 C 
ATOM      7  O   UNL     1      25.335 -34.843  20.395  1.00  0.00    -0.308 OA
ATOM      8  C   UNL     1      23.196 -35.412  22.237  1.00  0.00     0.183 C 
ATOM      9  C   UNL     1      23.869 -36.514  21.419  1.00  0.00     0.215 C 
BRANCH   5  10
ATOM     10  O   UNL     1      25.658 -32.734  21.388  1.00  0.00    -0.353 OA
ATOM     11  C   UNL     1      26.826 -33.249  22.015  1.00  0.00     0.198 C 
ENDBRANCH   5  10
BRANCH   6  12
ATOM     12  O   UNL     1      23.474 -33.198  23.144  1.00  0.00    -0.385 OA
ATOM     13  H   UNL     1      23.186 -33.595  23.991  1.00  0.00     0.211 HD
ENDBRANCH   6  12
BRANCH   8  14
ATOM     14  O   UNL     1      22.784 -35.954  23.504  1.00  0.00    -0.387 OA
ATOM     15  H   UNL     1      22.304 -36.779  23.282  1.00  0.00     0.211 HD
ENDBRANCH   8  14
BRANCH   9  16
ATOM     16  O   UNL     1      22.924 -37.564  21.187  1.00  0.00    -0.384 OA
ATOM     17  H   UNL     1      22.312 -37.531  21.950  1.00  0.00     0.211 HD
ENDBRANCH   9  16
ENDBRANCH   3   4
ENDBRANCH   1   3
BRANCH   1  18
ATOM     18  C   UNL     1      23.782 -35.061  17.004  1.00  0.00     0.067 A 
ATOM     19  C   UNL     1      23.046 -33.875  16.826  1.00  0.00     0.066 A 
ATOM     20  C   UNL     1      24.919 -35.307  16.218  1.00  0.00     0.066 A 
ATOM     21  C   UNL     1      23.453 -32.950  15.871  1.00  0.00     0.162 A 
ATOM     22  C   UNL     1      25.305 -34.370  15.270  1.00  0.00     0.162 A 
ATOM     23  C   UNL     1      24.580 -33.199  15.096  1.00  0.00     0.200 A 
BRANCH  21  24
ATOM     24  O   UNL     1      22.778 -31.781  15.657  1.00  0.00    -0.504 OA
ATOM     25  H   UNL     1      21.866 -31.888  15.984  1.00  0.00     0.293 HD
ENDBRANCH  21  24
BRANCH  22  26
ATOM     26  O   UNL     1      26.409 -34.610  14.504  1.00  0.00    -0.504 OA
ATOM     27  H   UNL     1      27.062 -34.995  15.124  1.00  0.00     0.293 HD
ENDBRANCH  22  26
BRANCH  23  28
ATOM     28  O   UNL     1      24.989 -32.296  14.152  1.00  0.00    -0.502 OA
ATOM     29  H   UNL     1      24.559 -31.457  14.417  1.00  0.00     0.293 HD
ENDBRANCH  23  28
ENDBRANCH   1  18
TORSDOF 10
ENDMDL
MODEL 5
REMARK VINA RESULT:    -7.143      3.687      6.821
REMARK INTER + INTRA:         -10.709
REMARK INTER:                  -9.945
REMARK INTRA:                  -0.764
REMARK UNBOUND:                -0.642
REMARK SMILES CO[C@H]1OC(OC(=O)c2cc(O)c(O)c(O)c2)[C@H](O)[C@@H](O)[C@@H]1O
REMARK SMILES IDX 7 1 8 2 6 3 5 4 3 5 22 6 4 7 20 8 18 9 2 10 1 11 23 12 21 14
REMARK SMILES IDX 19 16 9 18 17 19 10 20 15 21 11 22 13 23 16 24 12 26 14 28
REMARK H PARENT 23 13 21 15 19 17 16 25 12 27 14 29
ROOT
ATOM      1  C   UNL     1      23.579 -35.374  22.428  1.00  0.00     0.340 C 
ATOM      2  O   UNL     1      22.741 -35.942  23.110  1.00  0.00    -0.246 OA
ENDROOT
BRANCH   1   3
ATOM      3  O   UNL     1      23.892 -35.641  21.139  1.00  0.00    -0.429 OA
BRANCH   3   4
ATOM      4  C   UNL     1      22.779 -35.889  20.266  1.00  0.00     0.345 C 
ATOM      5  C   UNL     1      24.100 -35.476  18.324  1.00  0.00     0.285 C 
ATOM      6  C   UNL     1      24.059 -36.956  17.902  1.00  0.00     0.202 C 
ATOM      7  O   UNL     1      22.931 -35.126  19.057  1.00  0.00    -0.308 OA
ATOM      8  C   UNL     1      23.893 -37.840  19.133  1.00  0.00     0.183 C 
ATOM      9  C   UNL     1      22.674 -37.395  19.941  1.00  0.00     0.215 C 
BRANCH   5  10
ATOM     10  O   UNL     1      24.185 -34.713  17.110  1.00  0.00    -0.353 OA
ATOM     11  C   UNL     1      23.005 -33.953  16.881  1.00  0.00     0.198 C 
ENDBRANCH   5  10
BRANCH   6  12
ATOM     12  O   UNL     1      25.259 -37.341  17.212  1.00  0.00    -0.385 OA
ATOM     13  H   UNL     1      25.298 -36.761  16.425  1.00  0.00     0.211 HD
ENDBRANCH   6  12
BRANCH   8  14
ATOM     14  O   UNL     1      23.718 -39.212  18.738  1.00  0.00    -0.387 OA
ATOM     15  H   UNL     1      23.270 -39.638  19.497  1.00  0.00     0.211 HD
ENDBRANCH   8  14
BRANCH   9  16
ATOM     16  O   UNL     1      22.575 -38.205  21.118  1.00  0.00    -0.384 OA
ATOM     17  H   UNL     1      22.861 -37.625  21.852  1.00  0.00     0.211 HD
ENDBRANCH   9  16
ENDBRANCH   3   4
ENDBRANCH   1   3
BRANCH   1  18
ATOM     18  C   UNL     1      24.409 -34.251  22.941  1.00  0.00     0.067 A 
ATOM     19  C   UNL     1      24.310 -33.937  24.309  1.00  0.00     0.066 A 
ATOM     20  C   UNL     1      25.265 -33.512  22.110  1.00  0.00     0.066 A 
ATOM     21  C   UNL     1      25.066 -32.892  24.831  1.00  0.00     0.162 A 
ATOM     22  C   UNL     1      26.009 -32.472  22.653  1.00  0.00     0.162 A 
ATOM     23  C   UNL     1      25.912 -32.163  24.003  1.00  0.00     0.200 A 
BRANCH  21  24
ATOM     24  O   UNL     1      25.012 -32.545  26.151  1.00  0.00    -0.504 OA
ATOM     25  H   UNL     1      24.236 -32.978  26.552  1.00  0.00     0.293 HD
ENDBRANCH  21  24
BRANCH  22  26
ATOM     26  O   UNL     1      26.839 -31.752  21.845  1.00  0.00    -0.504 OA
ATOM     27  H   UNL     1      26.284 -31.502  21.077  1.00  0.00     0.293 HD
ENDBRANCH  22  26
BRANCH  23  28
ATOM     28  O   UNL     1      26.660 -31.133  24.505  1.00  0.00    -0.502 OA
ATOM     29  H   UNL     1      27.459 -31.568  24.868  1.00  0.00     0.293 HD
ENDBRANCH  23  28
ENDBRANCH   1  18
TORSDOF 10
ENDMDL
MODEL 6
REMARK VINA RESULT:    -7.069      2.658      6.365
REMARK INTER + INTRA:         -10.604
REMARK INTER:                  -9.858
REMARK INTRA:                  -0.746
REMARK UNBOUND:                -0.642
REMARK SMILES CO[C@H]1OC(OC(=O)c2cc(O)c(O)c(O)c2)[C@H](O)[C@@H](O)[C@@H]1O
REMARK SMILES IDX 7 1 8 2 6 3 5 4 3 5 22 6 4 7 20 8 18 9 2 10 1 11 23 12 21 14
REMARK SMILES IDX 19 16 9 18 17 19 10 20 15 21 11 22 13 23 16 24 12 26 14 28
REMARK H PARENT 23 13 21 15 19 17 16 25 12 27 14 29
ROOT
ATOM      1  C   UNL     1      23.435 -36.872  20.720  1.00  0.00     0.340 C 
ATOM      2  O   UNL     1      22.729 -37.771  21.149  1.00  0.00    -0.246 OA
ENDROOT
BRANCH   1   3
ATOM      3  O   UNL     1      24.076 -36.843  19.528  1.00  0.00    -0.429 OA
BRANCH   3   4
ATOM      4  C   UNL     1      23.254 -37.076  18.373  1.00  0.00     0.345 C 
ATOM      5  C   UNL     1      24.915 -36.196  16.907  1.00  0.00     0.285 C 
ATOM      6  C   UNL     1      25.208 -37.580  16.302  1.00  0.00     0.202 C 
ATOM      7  O   UNL     1      23.566 -36.113  17.353  1.00  0.00    -0.308 OA
ATOM      8  C   UNL     1      24.895 -38.668  17.324  1.00  0.00     0.183 C 
ATOM      9  C   UNL     1      23.466 -38.510  17.841  1.00  0.00     0.215 C 
BRANCH   5  10
ATOM     10  O   UNL     1      25.165 -35.240  15.865  1.00  0.00    -0.353 OA
ATOM     11  C   UNL     1      24.166 -34.228  15.827  1.00  0.00     0.198 C 
ENDBRANCH   5  10
BRANCH   6  12
ATOM     12  O   UNL     1      26.582 -37.702  15.901  1.00  0.00    -0.385 OA
ATOM     13  H   UNL     1      26.855 -38.596  16.190  1.00  0.00     0.211 HD
ENDBRANCH   6  12
BRANCH   8  14
ATOM     14  O   UNL     1      25.036 -39.967  16.724  1.00  0.00    -0.387 OA
ATOM     15  H   UNL     1      24.146 -40.183  16.376  1.00  0.00     0.211 HD
ENDBRANCH   8  14
BRANCH   9  16
ATOM     16  O   UNL     1      23.219 -39.508  18.838  1.00  0.00    -0.384 OA
ATOM     17  H   UNL     1      23.093 -39.011  19.671  1.00  0.00     0.211 HD
ENDBRANCH   9  16
ENDBRANCH   3   4
ENDBRANCH   1   3
BRANCH   1  18
ATOM     18  C   UNL     1      23.696 -35.620  21.479  1.00  0.00     0.067 A 
ATOM     19  C   UNL     1      23.592 -35.672  22.882  1.00  0.00     0.066 A 
ATOM     20  C   UNL     1      24.031 -34.415  20.843  1.00  0.00     0.066 A 
ATOM     21  C   UNL     1      23.826 -34.524  23.631  1.00  0.00     0.162 A 
ATOM     22  C   UNL     1      24.259 -33.281  21.612  1.00  0.00     0.162 A 
ATOM     23  C   UNL     1      24.158 -33.333  22.996  1.00  0.00     0.200 A 
BRANCH  21  24
ATOM     24  O   UNL     1      23.742 -34.516  24.995  1.00  0.00    -0.504 OA
ATOM     25  H   UNL     1      24.610 -34.256  25.355  1.00  0.00     0.293 HD
ENDBRANCH  21  24
BRANCH  22  26
ATOM     26  O   UNL     1      24.582 -32.108  20.994  1.00  0.00    -0.504 OA
ATOM     27  H   UNL     1      24.045 -31.429  21.452  1.00  0.00     0.293 HD
ENDBRANCH  22  26
BRANCH  23  28
ATOM     28  O   UNL     1      24.389 -32.196  23.723  1.00  0.00    -0.502 OA
ATOM     29  H   UNL     1      23.846 -31.511  23.280  1.00  0.00     0.293 HD
ENDBRANCH  23  28
ENDBRANCH   1  18
TORSDOF 10
ENDMDL
MODEL 7
REMARK VINA RESULT:    -6.990      1.567      3.641
REMARK INTER + INTRA:         -10.492
REMARK INTER:                  -9.700
REMARK INTRA:                  -0.793
REMARK UNBOUND:                -0.642
REMARK SMILES CO[C@H]1OC(OC(=O)c2cc(O)c(O)c(O)c2)[C@H](O)[C@@H](O)[C@@H]1O
REMARK SMILES IDX 7 1 8 2 6 3 5 4 3 5 22 6 4 7 20 8 18 9 2 10 1 11 23 12 21 14
REMARK SMILES IDX 19 16 9 18 17 19 10 20 15 21 11 22 13 23 16 24 12 26 14 28
REMARK H PARENT 23 13 21 15 19 17 16 25 12 27 14 29
ROOT
ATOM      1  C   UNL     1      26.097 -36.482  15.760  1.00  0.00     0.340 C 
ATOM      2  O   UNL     1      26.944 -37.296  15.430  1.00  0.00    -0.246 OA
ENDROOT
BRANCH   1   3
ATOM      3  O   UNL     1      25.149 -36.639  16.713  1.00  0.00    -0.429 OA
BRANCH   3   4
ATOM      4  C   UNL     1      25.633 -36.772  18.058  1.00  0.00     0.345 C 
ATOM      5  C   UNL     1      23.956 -35.301  18.900  1.00  0.00     0.285 C 
ATOM      6  C   UNL     1      23.228 -36.444  19.629  1.00  0.00     0.202 C 
ATOM      7  O   UNL     1      25.350 -35.573  18.797  1.00  0.00    -0.308 OA
ATOM      8  C   UNL     1      23.483 -37.762  18.909  1.00  0.00     0.183 C 
ATOM      9  C   UNL     1      24.986 -37.993  18.747  1.00  0.00     0.215 C 
BRANCH   5  10
ATOM     10  O   UNL     1      23.726 -34.115  19.677  1.00  0.00    -0.353 OA
ATOM     11  C   UNL     1      24.476 -34.123  20.886  1.00  0.00     0.198 C 
ENDBRANCH   5  10
BRANCH   6  12
ATOM     12  O   UNL     1      21.811 -36.213  19.689  1.00  0.00    -0.385 OA
ATOM     13  H   UNL     1      21.403 -37.053  19.395  1.00  0.00     0.211 HD
ENDBRANCH   6  12
BRANCH   8  14
ATOM     14  O   UNL     1      22.920 -38.854  19.658  1.00  0.00    -0.387 OA
ATOM     15  H   UNL     1      21.959 -38.665  19.695  1.00  0.00     0.211 HD
ENDBRANCH   8  14
BRANCH   9  16
ATOM     16  O   UNL     1      25.193 -39.208  18.019  1.00  0.00    -0.384 OA
ATOM     17  H   UNL     1      25.152 -38.952  17.076  1.00  0.00     0.211 HD
ENDBRANCH   9  16
ENDBRANCH   3   4
ENDBRANCH   1   3
BRANCH   1  18
ATOM     18  C   UNL     1      25.987 -35.136  15.137  1.00  0.00     0.067 A 
ATOM     19  C   UNL     1      24.843 -34.371  15.429  1.00  0.00     0.066 A 
ATOM     20  C   UNL     1      26.975 -34.625  14.279  1.00  0.00     0.066 A 
ATOM     21  C   UNL     1      24.699 -33.108  14.865  1.00  0.00     0.162 A 
ATOM     22  C   UNL     1      26.808 -33.362  13.727  1.00  0.00     0.162 A 
ATOM     23  C   UNL     1      25.679 -32.606  14.017  1.00  0.00     0.200 A 
BRANCH  21  24
ATOM     24  O   UNL     1      23.611 -32.320  15.116  1.00  0.00    -0.504 OA
ATOM     25  H   UNL     1      22.905 -32.880  15.488  1.00  0.00     0.293 HD
ENDBRANCH  21  24
BRANCH  22  26
ATOM     26  O   UNL     1      27.766 -32.866  12.892  1.00  0.00    -0.504 OA
ATOM     27  H   UNL     1      28.613 -33.183  13.269  1.00  0.00     0.293 HD
ENDBRANCH  22  26
BRANCH  23  28
ATOM     28  O   UNL     1      25.547 -31.365  13.456  1.00  0.00    -0.502 OA
ATOM     29  H   UNL     1      25.891 -31.473  12.545  1.00  0.00     0.293 HD
ENDBRANCH  23  28
ENDBRANCH   1  18
TORSDOF 10
ENDMDL
MODEL 8
REMARK VINA RESULT:    -6.983      2.874      4.901
REMARK INTER + INTRA:         -10.483
REMARK INTER:                  -9.688
REMARK INTRA:                  -0.795
REMARK UNBOUND:                -0.642
REMARK SMILES CO[C@H]1OC(OC(=O)c2cc(O)c(O)c(O)c2)[C@H](O)[C@@H](O)[C@@H]1O
REMARK SMILES IDX 7 1 8 2 6 3 5 4 3 5 22 6 4 7 20 8 18 9 2 10 1 11 23 12 21 14
REMARK SMILES IDX 19 16 9 18 17 19 10 20 15 21 11 22 13 23 16 24 12 26 14 28
REMARK H PARENT 23 13 21 15 19 17 16 25 12 27 14 29
ROOT
ATOM      1  C   UNL     1      23.169 -35.476  19.518  1.00  0.00     0.340 C 
ATOM      2  O   UNL     1      22.460 -36.442  19.747  1.00  0.00    -0.246 OA
ENDROOT
BRANCH   1   3
ATOM      3  O   UNL     1      23.674 -34.607  20.424  1.00  0.00    -0.429 OA
BRANCH   3   4
ATOM      4  C   UNL     1      24.387 -35.195  21.523  1.00  0.00     0.345 C 
ATOM      5  C   UNL     1      26.450 -34.237  20.809  1.00  0.00     0.285 C 
ATOM      6  C   UNL     1      26.492 -33.274  22.008  1.00  0.00     0.202 C 
ATOM      7  O   UNL     1      25.753 -35.433  21.144  1.00  0.00    -0.308 OA
ATOM      8  C   UNL     1      25.074 -32.973  22.480  1.00  0.00     0.183 C 
ATOM      9  C   UNL     1      24.325 -34.275  22.761  1.00  0.00     0.215 C 
BRANCH   5  10
ATOM     10  O   UNL     1      27.817 -34.524  20.475  1.00  0.00    -0.353 OA
ATOM     11  C   UNL     1      27.914 -35.489  19.435  1.00  0.00     0.198 C 
ENDBRANCH   5  10
BRANCH   6  12
ATOM     12  O   UNL     1      27.141 -32.037  21.670  1.00  0.00    -0.385 OA
ATOM     13  H   UNL     1      26.958 -31.905  20.718  1.00  0.00     0.211 HD
ENDBRANCH   6  12
BRANCH   8  14
ATOM     14  O   UNL     1      25.108 -32.184  23.682  1.00  0.00    -0.387 OA
ATOM     15  H   UNL     1      25.483 -32.778  24.365  1.00  0.00     0.211 HD
ENDBRANCH   8  14
BRANCH   9  16
ATOM     16  O   UNL     1      22.981 -33.964  23.147  1.00  0.00    -0.384 OA
ATOM     17  H   UNL     1      22.932 -34.185  24.099  1.00  0.00     0.211 HD
ENDBRANCH   9  16
ENDBRANCH   3   4
ENDBRANCH   1   3
BRANCH   1  18
ATOM     18  C   UNL     1      23.607 -35.106  18.145  1.00  0.00     0.067 A 
ATOM     19  C   UNL     1      22.951 -34.032  17.516  1.00  0.00     0.066 A 
ATOM     20  C   UNL     1      24.634 -35.792  17.476  1.00  0.00     0.066 A 
ATOM     21  C   UNL     1      23.327 -33.654  16.232  1.00  0.00     0.162 A 
ATOM     22  C   UNL     1      24.991 -35.397  16.193  1.00  0.00     0.162 A 
ATOM     23  C   UNL     1      24.344 -34.336  15.574  1.00  0.00     0.200 A 
BRANCH  21  24
ATOM     24  O   UNL     1      22.726 -32.618  15.574  1.00  0.00    -0.504 OA
ATOM     25  H   UNL     1      21.946 -32.338  16.088  1.00  0.00     0.293 HD
ENDBRANCH  21  24
BRANCH  22  26
ATOM     26  O   UNL     1      25.987 -36.064  15.542  1.00  0.00    -0.504 OA
ATOM     27  H   UNL     1      26.713 -36.127  16.197  1.00  0.00     0.293 HD
ENDBRANCH  22  26
BRANCH  23  28
ATOM     28  O   UNL     1      24.721 -33.973  14.309  1.00  0.00    -0.502 OA
ATOM     29  H   UNL     1      25.663 -34.237  14.253  1.00  0.00     0.293 HD
ENDBRANCH  23  28
ENDBRANCH   1  18
TORSDOF 10
ENDMDL
MODEL 9
REMARK VINA RESULT:    -6.955      2.666      6.284
REMARK INTER + INTRA:         -10.443
REMARK INTER:                  -9.609
REMARK INTRA:                  -0.834
REMARK UNBOUND:                -0.642
REMARK SMILES CO[C@H]1OC(OC(=O)c2cc(O)c(O)c(O)c2)[C@H](O)[C@@H](O)[C@@H]1O
REMARK SMILES IDX 7 1 8 2 6 3 5 4 3 5 22 6 4 7 20 8 18 9 2 10 1 11 23 12 21 14
REMARK SMILES IDX 19 16 9 18 17 19 10 20 15 21 11 22 13 23 16 24 12 26 14 28
REMARK H PARENT 23 13 21 15 19 17 16 25 12 27 14 29
ROOT
ATOM      1  C   UNL     1      23.615 -36.987  20.923  1.00  0.00     0.340 C 
ATOM      2  O   UNL     1      22.858 -37.791  21.441  1.00  0.00    -0.246 OA
ENDROOT
BRANCH   1   3
ATOM      3  O   UNL     1      24.202 -37.092  19.707  1.00  0.00    -0.429 OA
BRANCH   3   4
ATOM      4  C   UNL     1      23.306 -37.164  18.587  1.00  0.00     0.345 C 
ATOM      5  C   UNL     1      24.982 -36.377  17.086  1.00  0.00     0.285 C 
ATOM      6  C   UNL     1      25.092 -37.744  16.389  1.00  0.00     0.202 C 
ATOM      7  O   UNL     1      23.673 -36.178  17.608  1.00  0.00    -0.308 OA
ATOM      8  C   UNL     1      24.710 -38.853  17.362  1.00  0.00     0.183 C 
ATOM      9  C   UNL     1      23.333 -38.576  17.964  1.00  0.00     0.215 C 
BRANCH   5  10
ATOM     10  O   UNL     1      25.286 -35.390  16.088  1.00  0.00    -0.353 OA
ATOM     11  C   UNL     1      24.261 -34.408  15.987  1.00  0.00     0.198 C 
ENDBRANCH   5  10
BRANCH   6  12
ATOM     12  O   UNL     1      26.424 -37.986  15.907  1.00  0.00    -0.385 OA
ATOM     13  H   UNL     1      26.919 -38.322  16.683  1.00  0.00     0.211 HD
ENDBRANCH   6  12
BRANCH   8  14
ATOM     14  O   UNL     1      24.679 -40.121  16.683  1.00  0.00    -0.387 OA
ATOM     15  H   UNL     1      24.959 -39.923  15.765  1.00  0.00     0.211 HD
ENDBRANCH   8  14
BRANCH   9  16
ATOM     16  O   UNL     1      23.026 -39.602  18.914  1.00  0.00    -0.384 OA
ATOM     17  H   UNL     1      23.041 -39.157  19.785  1.00  0.00     0.211 HD
ENDBRANCH   9  16
ENDBRANCH   3   4
ENDBRANCH   1   3
BRANCH   1  18
ATOM     18  C   UNL     1      24.013 -35.714  21.582  1.00  0.00     0.067 A 
ATOM     19  C   UNL     1      25.155 -35.053  21.092  1.00  0.00     0.066 A 
ATOM     20  C   UNL     1      23.296 -35.172  22.660  1.00  0.00     0.066 A 
ATOM     21  C   UNL     1      25.564 -33.861  21.680  1.00  0.00     0.162 A 
ATOM     22  C   UNL     1      23.724 -33.982  23.232  1.00  0.00     0.162 A 
ATOM     23  C   UNL     1      24.850 -33.329  22.747  1.00  0.00     0.200 A 
BRANCH  21  24
ATOM     24  O   UNL     1      26.663 -33.175  21.244  1.00  0.00    -0.504 OA
ATOM     25  H   UNL     1      27.214 -33.781  20.715  1.00  0.00     0.293 HD
ENDBRANCH  21  24
BRANCH  22  26
ATOM     26  O   UNL     1      23.028 -33.456  24.281  1.00  0.00    -0.504 OA
ATOM     27  H   UNL     1      22.772 -32.559  23.984  1.00  0.00     0.293 HD
ENDBRANCH  22  26
BRANCH  23  28
ATOM     28  O   UNL     1      25.244 -32.157  23.334  1.00  0.00    -0.502 OA
ATOM     29  H   UNL     1      25.233 -32.352  24.294  1.00  0.00     0.293 HD
ENDBRANCH  23  28
ENDBRANCH   1  18
TORSDOF 10
ENDMDL
