MODEL 1
REMARK VINA RESULT:    -7.957      0.000      0.000
REMARK INTER + INTRA:         -12.371
REMARK INTER:                 -11.446
REMARK INTRA:                  -0.925
REMARK UNBOUND:                -0.925
REMARK SMILES O=C([O-])C1=CO[C@@H](O[C@@H]2O[C@H](CO)[C@@H](O)[C@H](O)[C@H]2O)[C@@H]2[C@@H](CO)CC[C@H]12
REMARK SMILES IDX 8 1 7 2 24 3 25 4 21 5 26 6 20 7 4 8 5 9 6 10 22 11 23 12
REMARK SMILES IDX 2 14 1 15 3 16 9 17 18 18 10 19 16 20 11 21 14 22 19 23
REMARK SMILES IDX 17 25 12 27 13 28 15 30
REMARK H PARENT 23 13 19 24 17 26 13 29 15 31
ROOT
ATOM      1  O   UNL     1      23.668 -35.148  17.527  1.00  0.00    -0.310 OA
ENDROOT
BRANCH   1   2
ATOM      2  C   UNL     1      24.741 -35.545  18.394  1.00  0.00     0.313 C 
ATOM      3  C   UNL     1      25.032 -34.473  22.025  1.00  0.00     0.007 C 
ATOM      4  C   UNL     1      23.586 -34.958  21.946  1.00  0.00     0.009 C 
ATOM      5  C   UNL     1      25.687 -35.004  20.755  1.00  0.00     0.024 C 
ATOM      6  C   UNL     1      23.302 -35.277  20.462  1.00  0.00     0.034 C 
ATOM      7  C   UNL     1      24.569 -34.798  19.718  1.00  0.00     0.071 C 
ATOM      8  C   UNL     1      23.049 -36.743  20.221  1.00  0.00     0.013 C 
ATOM      9  C   UNL     1      23.790 -37.464  19.370  1.00  0.00     0.196 C 
ATOM     10  O   UNL     1      24.790 -36.969  18.573  1.00  0.00    -0.472 OA
BRANCH   5  11
ATOM     11  C   UNL     1      26.989 -34.284  20.432  1.00  0.00     0.160 C 
BRANCH  11  12
ATOM     12  O   UNL     1      27.660 -33.888  21.622  1.00  0.00    -0.396 OA
ATOM     13  H   UNL     1      27.611 -32.916  21.671  1.00  0.00     0.210 HD
ENDBRANCH  11  12
ENDBRANCH   5  11
BRANCH   8  14
ATOM     14  C   UNL     1      21.894 -37.432  20.976  1.00  0.00     0.071 C 
ATOM     15  O   UNL     1      20.769 -36.865  20.894  1.00  0.00    -0.545 OA
ATOM     16  O   UNL     1      22.223 -38.485  21.593  1.00  0.00    -0.545 OA
ENDBRANCH   8  14
ENDBRANCH   1   2
BRANCH   1  17
ATOM     17  C   UNL     1      24.102 -34.924  16.191  1.00  0.00     0.286 C 
ATOM     18  C   UNL     1      23.927 -33.417  15.933  1.00  0.00     0.202 C 
ATOM     19  O   UNL     1      25.475 -35.303  16.061  1.00  0.00    -0.341 OA
ATOM     20  C   UNL     1      24.481 -33.065  14.556  1.00  0.00     0.179 C 
ATOM     21  C   UNL     1      25.991 -35.048  14.742  1.00  0.00     0.178 C 
ATOM     22  C   UNL     1      25.923 -33.552  14.413  1.00  0.00     0.177 C 
BRANCH  18  23
ATOM     23  O   UNL     1      22.551 -33.013  15.974  1.00  0.00    -0.385 OA
ATOM     24  H   UNL     1      22.552 -32.044  16.141  1.00  0.00     0.211 HD
ENDBRANCH  18  23
BRANCH  20  25
ATOM     25  O   UNL     1      24.443 -31.643  14.347  1.00  0.00    -0.387 OA
ATOM     26  H   UNL     1      23.685 -31.510  13.737  1.00  0.00     0.211 HD
ENDBRANCH  20  25
BRANCH  21  27
ATOM     27  C   UNL     1      27.435 -35.560  14.709  1.00  0.00     0.191 C 
BRANCH  27  28
ATOM     28  O   UNL     1      28.334 -34.459  14.549  1.00  0.00    -0.394 OA
ATOM     29  H   UNL     1      28.391 -34.306  13.584  1.00  0.00     0.210 HD
ENDBRANCH  27  28
ENDBRANCH  21  27
BRANCH  22  30
ATOM     30  O   UNL     1      26.379 -33.285  13.084  1.00  0.00    -0.387 OA
ATOM     31  H   UNL     1      27.346 -33.440  13.116  1.00  0.00     0.211 HD
ENDBRANCH  22  30
ENDBRANCH   1  17
TORSDOF 10
ENDMDL
MODEL 2
REMARK VINA RESULT:    -7.578      2.717      7.410
REMARK INTER + INTRA:         -11.825
REMARK INTER:                 -11.013
REMARK INTRA:                  -0.812
REMARK UNBOUND:                -0.925
REMARK SMILES O=C([O-])C1=CO[C@@H](O[C@@H]2O[C@H](CO)[C@@H](O)[C@H](O)[C@H]2O)[C@@H]2[C@@H](CO)CC[C@H]12
REMARK SMILES IDX 8 1 7 2 24 3 25 4 21 5 26 6 20 7 4 8 5 9 6 10 22 11 23 12
REMARK SMILES IDX 2 14 1 15 3 16 9 17 18 18 10 19 16 20 11 21 14 22 19 23
REMARK SMILES IDX 17 25 12 27 13 28 15 30
REMARK H PARENT 23 13 19 24 17 26 13 29 15 31
ROOT
ATOM      1  O   UNL     1      25.153 -34.158  21.537  1.00  0.00    -0.310 OA
ENDROOT
BRANCH   1   2
ATOM      2  C   UNL     1      24.674 -35.509  21.455  1.00  0.00     0.313 C 
ATOM      3  C   UNL     1      21.499 -36.516  19.632  1.00  0.00     0.007 C 
ATOM      4  C   UNL     1      22.205 -35.647  18.595  1.00  0.00     0.009 C 
ATOM      5  C   UNL     1      22.570 -36.822  20.673  1.00  0.00     0.024 C 
ATOM      6  C   UNL     1      23.448 -35.046  19.286  1.00  0.00     0.034 C 
ATOM      7  C   UNL     1      23.309 -35.475  20.764  1.00  0.00     0.071 C 
ATOM      8  C   UNL     1      24.740 -35.544  18.693  1.00  0.00     0.013 C 
ATOM      9  C   UNL     1      25.667 -36.172  19.427  1.00  0.00     0.196 C 
ATOM     10  O   UNL     1      25.605 -36.371  20.783  1.00  0.00    -0.472 OA
BRANCH   5  11
ATOM     11  C   UNL     1      21.975 -37.307  21.988  1.00  0.00     0.160 C 
BRANCH  11  12
ATOM     12  O   UNL     1      20.584 -37.569  21.852  1.00  0.00    -0.396 OA
ATOM     13  H   UNL     1      20.117 -36.962  22.454  1.00  0.00     0.210 HD
ENDBRANCH  11  12
ENDBRANCH   5  11
BRANCH   8  14
ATOM     14  C   UNL     1      25.006 -35.316  17.191  1.00  0.00     0.071 C 
ATOM     15  O   UNL     1      24.414 -34.328  16.672  1.00  0.00    -0.545 OA
ATOM     16  O   UNL     1      25.785 -36.158  16.660  1.00  0.00    -0.545 OA
ENDBRANCH   8  14
ENDBRANCH   1   2
BRANCH   1  17
ATOM     17  C   UNL     1      25.591 -33.815  22.847  1.00  0.00     0.286 C 
ATOM     18  C   UNL     1      26.882 -32.996  22.665  1.00  0.00     0.202 C 
ATOM     19  O   UNL     1      24.586 -33.034  23.501  1.00  0.00    -0.341 OA
ATOM     20  C   UNL     1      27.359 -32.484  24.019  1.00  0.00     0.179 C 
ATOM     21  C   UNL     1      24.992 -32.608  24.814  1.00  0.00     0.178 C 
ATOM     22  C   UNL     1      26.242 -31.723  24.733  1.00  0.00     0.177 C 
BRANCH  18  23
ATOM     23  O   UNL     1      27.941 -33.772  22.085  1.00  0.00    -0.385 OA
ATOM     24  H   UNL     1      28.575 -33.127  21.700  1.00  0.00     0.211 HD
ENDBRANCH  18  23
BRANCH  20  25
ATOM     25  O   UNL     1      28.491 -31.613  23.857  1.00  0.00    -0.387 OA
ATOM     26  H   UNL     1      29.259 -32.166  24.118  1.00  0.00     0.211 HD
ENDBRANCH  20  25
BRANCH  21  27
ATOM     27  C   UNL     1      23.813 -31.850  25.433  1.00  0.00     0.191 C 
BRANCH  27  28
ATOM     28  O   UNL     1      24.061 -30.442  25.379  1.00  0.00    -0.394 OA
ATOM     29  H   UNL     1      25.035 -30.349  25.363  1.00  0.00     0.210 HD
ENDBRANCH  27  28
ENDBRANCH  21  27
BRANCH  22  30
ATOM     30  O   UNL     1      26.695 -31.335  26.033  1.00  0.00    -0.387 OA
ATOM     31  H   UNL     1      26.130 -31.838  26.655  1.00  0.00     0.211 HD
ENDBRANCH  22  30
ENDBRANCH   1  17
TORSDOF 10
ENDMDL
MODEL 3
REMARK VINA RESULT:    -7.571      2.713      6.961
REMARK INTER + INTRA:         -11.817
REMARK INTER:                 -11.110
REMARK INTRA:                  -0.706
REMARK UNBOUND:                -0.925
REMARK SMILES O=C([O-])C1=CO[C@@H](O[C@@H]2O[C@H](CO)[C@@H](O)[C@H](O)[C@H]2O)[C@@H]2[C@@H](CO)CC[C@H]12
REMARK SMILES IDX 8 1 7 2 24 3 25 4 21 5 26 6 20 7 4 8 5 9 6 10 22 11 23 12
REMARK SMILES IDX 2 14 1 15 3 16 9 17 18 18 10 19 16 20 11 21 14 22 19 23
REMARK SMILES IDX 17 25 12 27 13 28 15 30
REMARK H PARENT 23 13 19 24 17 26 13 29 15 31
ROOT
ATOM      1  O   UNL     1      24.944 -33.216  21.004  1.00  0.00    -0.310 OA
ENDROOT
BRANCH   1   2
ATOM      2  C   UNL     1      24.743 -34.615  21.252  1.00  0.00     0.313 C 
ATOM      3  C   UNL     1      21.785 -36.593  19.928  1.00  0.00     0.007 C 
ATOM      4  C   UNL     1      22.271 -35.864  18.678  1.00  0.00     0.009 C 
ATOM      5  C   UNL     1      22.926 -36.446  20.929  1.00  0.00     0.024 C 
ATOM      6  C   UNL     1      23.388 -34.898  19.130  1.00  0.00     0.034 C 
ATOM      7  C   UNL     1      23.381 -34.999  20.672  1.00  0.00     0.071 C 
ATOM      8  C   UNL     1      24.736 -35.263  18.565  1.00  0.00     0.013 C 
ATOM      9  C   UNL     1      25.791 -35.520  19.348  1.00  0.00     0.196 C 
ATOM     10  O   UNL     1      25.809 -35.414  20.716  1.00  0.00    -0.472 OA
BRANCH   5  11
ATOM     11  C   UNL     1      22.479 -36.724  22.358  1.00  0.00     0.160 C 
BRANCH  11  12
ATOM     12  O   UNL     1      21.277 -37.485  22.377  1.00  0.00    -0.396 OA
ATOM     13  H   UNL     1      20.576 -36.905  22.725  1.00  0.00     0.210 HD
ENDBRANCH  11  12
ENDBRANCH   5  11
BRANCH   8  14
ATOM     14  C   UNL     1      24.906 -35.335  17.034  1.00  0.00     0.071 C 
ATOM     15  O   UNL     1      24.336 -34.422  16.374  1.00  0.00    -0.545 OA
ATOM     16  O   UNL     1      25.598 -36.312  16.627  1.00  0.00    -0.545 OA
ENDBRANCH   8  14
ENDBRANCH   1   2
BRANCH   1  17
ATOM     17  C   UNL     1      25.349 -32.509  22.171  1.00  0.00     0.286 C 
ATOM     18  C   UNL     1      24.257 -32.767  23.226  1.00  0.00     0.202 C 
ATOM     19  O   UNL     1      26.613 -33.007  22.620  1.00  0.00    -0.341 OA
ATOM     20  C   UNL     1      24.670 -32.140  24.553  1.00  0.00     0.179 C 
ATOM     21  C   UNL     1      27.053 -32.368  23.833  1.00  0.00     0.178 C 
ATOM     22  C   UNL     1      26.058 -32.625  24.971  1.00  0.00     0.177 C 
BRANCH  18  23
ATOM     23  O   UNL     1      22.991 -32.208  22.846  1.00  0.00    -0.385 OA
ATOM     24  H   UNL     1      23.036 -32.057  21.876  1.00  0.00     0.211 HD
ENDBRANCH  18  23
BRANCH  20  25
ATOM     25  O   UNL     1      23.725 -32.476  25.584  1.00  0.00    -0.387 OA
ATOM     26  H   UNL     1      23.369 -33.348  25.308  1.00  0.00     0.211 HD
ENDBRANCH  20  25
BRANCH  21  27
ATOM     27  C   UNL     1      28.438 -32.930  24.168  1.00  0.00     0.191 C 
BRANCH  27  28
ATOM     28  O   UNL     1      28.931 -33.693  23.064  1.00  0.00    -0.394 OA
ATOM     29  H   UNL     1      29.820 -33.331  22.872  1.00  0.00     0.210 HD
ENDBRANCH  27  28
ENDBRANCH  21  27
BRANCH  22  30
ATOM     30  O   UNL     1      26.449 -31.951  26.171  1.00  0.00    -0.387 OA
ATOM     31  H   UNL     1      25.871 -32.327  26.868  1.00  0.00     0.211 HD
ENDBRANCH  22  30
ENDBRANCH   1  17
TORSDOF 10
ENDMDL
MODEL 4
REMARK VINA RESULT:    -7.505      3.692      5.605
REMARK INTER + INTRA:         -11.721
REMARK INTER:                 -10.823
REMARK INTRA:                  -0.898
REMARK UNBOUND:                -0.925
REMARK SMILES O=C([O-])C1=CO[C@@H](O[C@@H]2O[C@H](CO)[C@@H](O)[C@H](O)[C@H]2O)[C@@H]2[C@@H](CO)CC[C@H]12
REMARK SMILES IDX 8 1 7 2 24 3 25 4 21 5 26 6 20 7 4 8 5 9 6 10 22 11 23 12
REMARK SMILES IDX 2 14 1 15 3 16 9 17 18 18 10 19 16 20 11 21 14 22 19 23
REMARK SMILES IDX 17 25 12 27 13 28 15 30
REMARK H PARENT 23 13 19 24 17 26 13 29 15 31
ROOT
ATOM      1  O   UNL     1      24.767 -37.714  19.842  1.00  0.00    -0.310 OA
ENDROOT
BRANCH   1   2
ATOM      2  C   UNL     1      23.422 -37.269  20.075  1.00  0.00     0.313 C 
ATOM      3  C   UNL     1      22.113 -36.186  23.471  1.00  0.00     0.007 C 
ATOM      4  C   UNL     1      23.417 -35.398  23.361  1.00  0.00     0.009 C 
ATOM      5  C   UNL     1      21.842 -36.684  22.055  1.00  0.00     0.024 C 
ATOM      6  C   UNL     1      24.123 -35.880  22.075  1.00  0.00     0.034 C 
ATOM      7  C   UNL     1      23.257 -37.061  21.582  1.00  0.00     0.071 C 
ATOM      8  C   UNL     1      24.223 -34.802  21.028  1.00  0.00     0.013 C 
ATOM      9  C   UNL     1      23.707 -34.949  19.801  1.00  0.00     0.196 C 
ATOM     10  O   UNL     1      23.108 -36.087  19.323  1.00  0.00    -0.472 OA
BRANCH   5  11
ATOM     11  C   UNL     1      20.840 -37.829  22.029  1.00  0.00     0.160 C 
BRANCH  11  12
ATOM     12  O   UNL     1      20.415 -38.165  23.344  1.00  0.00    -0.396 OA
ATOM     13  H   UNL     1      19.558 -38.622  23.262  1.00  0.00     0.210 HD
ENDBRANCH  11  12
ENDBRANCH   5  11
BRANCH   8  14
ATOM     14  C   UNL     1      24.950 -33.488  21.380  1.00  0.00     0.071 C 
ATOM     15  O   UNL     1      24.222 -32.459  21.450  1.00  0.00    -0.545 OA
ATOM     16  O   UNL     1      26.197 -33.606  21.551  1.00  0.00    -0.545 OA
ENDBRANCH   8  14
ENDBRANCH   1   2
BRANCH   1  17
ATOM     17  C   UNL     1      25.000 -38.050  18.479  1.00  0.00     0.286 C 
ATOM     18  C   UNL     1      26.351 -38.787  18.447  1.00  0.00     0.202 C 
ATOM     19  O   UNL     1      23.950 -38.898  18.006  1.00  0.00    -0.341 OA
ATOM     20  C   UNL     1      26.628 -39.289  17.035  1.00  0.00     0.179 C 
ATOM     21  C   UNL     1      24.158 -39.318  16.645  1.00  0.00     0.178 C 
ATOM     22  C   UNL     1      25.456 -40.126  16.520  1.00  0.00     0.177 C 
BRANCH  18  23
ATOM     23  O   UNL     1      27.443 -37.941  18.838  1.00  0.00    -0.385 OA
ATOM     24  H   UNL     1      27.832 -37.590  18.007  1.00  0.00     0.211 HD
ENDBRANCH  18  23
BRANCH  20  25
ATOM     25  O   UNL     1      27.822 -40.089  17.009  1.00  0.00    -0.387 OA
ATOM     26  H   UNL     1      27.984 -40.309  17.951  1.00  0.00     0.211 HD
ENDBRANCH  20  25
BRANCH  21  27
ATOM     27  C   UNL     1      22.942 -40.154  16.234  1.00  0.00     0.191 C 
BRANCH  27  28
ATOM     28  O   UNL     1      22.679 -39.974  14.840  1.00  0.00    -0.394 OA
ATOM     29  H   UNL     1      21.705 -39.988  14.753  1.00  0.00     0.210 HD
ENDBRANCH  27  28
ENDBRANCH  21  27
BRANCH  22  30
ATOM     30  O   UNL     1      25.709 -40.505  15.165  1.00  0.00    -0.387 OA
ATOM     31  H   UNL     1      25.321 -41.401  15.079  1.00  0.00     0.211 HD
ENDBRANCH  22  30
ENDBRANCH   1  17
TORSDOF 10
ENDMDL
MODEL 5
REMARK VINA RESULT:    -7.379      4.344      6.095
REMARK INTER + INTRA:         -11.539
REMARK INTER:                 -10.616
REMARK INTRA:                  -0.923
REMARK UNBOUND:                -0.925
REMARK SMILES O=C([O-])C1=CO[C@@H](O[C@@H]2O[C@H](CO)[C@@H](O)[C@H](O)[C@H]2O)[C@@H]2[C@@H](CO)CC[C@H]12
REMARK SMILES IDX 8 1 7 2 24 3 25 4 21 5 26 6 20 7 4 8 5 9 6 10 22 11 23 12
REMARK SMILES IDX 2 14 1 15 3 16 9 17 18 18 10 19 16 20 11 21 14 22 19 23
REMARK SMILES IDX 17 25 12 27 13 28 15 30
REMARK H PARENT 23 13 19 24 17 26 13 29 15 31
ROOT
ATOM      1  O   UNL     1      24.132 -38.925  16.811  1.00  0.00    -0.310 OA
ENDROOT
BRANCH   1   2
ATOM      2  C   UNL     1      24.876 -37.706  16.957  1.00  0.00     0.313 C 
ATOM      3  C   UNL     1      23.271 -34.296  17.427  1.00  0.00     0.007 C 
ATOM      4  C   UNL     1      22.538 -35.144  18.463  1.00  0.00     0.009 C 
ATOM      5  C   UNL     1      24.478 -35.137  17.025  1.00  0.00     0.024 C 
ATOM      6  C   UNL     1      23.001 -36.602  18.257  1.00  0.00     0.034 C 
ATOM      7  C   UNL     1      23.872 -36.551  16.982  1.00  0.00     0.071 C 
ATOM      8  C   UNL     1      23.782 -37.136  19.430  1.00  0.00     0.013 C 
ATOM      9  C   UNL     1      25.032 -37.601  19.303  1.00  0.00     0.196 C 
ATOM     10  O   UNL     1      25.716 -37.724  18.121  1.00  0.00    -0.472 OA
BRANCH   5  11
ATOM     11  C   UNL     1      25.093 -34.672  15.711  1.00  0.00     0.160 C 
BRANCH  11  12
ATOM     12  O   UNL     1      24.146 -34.740  14.653  1.00  0.00    -0.396 OA
ATOM     13  H   UNL     1      24.644 -34.688  13.817  1.00  0.00     0.210 HD
ENDBRANCH  11  12
ENDBRANCH   5  11
BRANCH   8  14
ATOM     14  C   UNL     1      23.117 -37.152  20.821  1.00  0.00     0.071 C 
ATOM     15  O   UNL     1      23.499 -36.254  21.623  1.00  0.00    -0.545 OA
ATOM     16  O   UNL     1      22.267 -38.073  20.988  1.00  0.00    -0.545 OA
ENDBRANCH   8  14
ENDBRANCH   1   2
BRANCH   1  17
ATOM     17  C   UNL     1      24.502 -39.651  15.645  1.00  0.00     0.286 C 
ATOM     18  C   UNL     1      25.443 -40.772  16.121  1.00  0.00     0.202 C 
ATOM     19  O   UNL     1      23.333 -40.200  15.029  1.00  0.00    -0.341 OA
ATOM     20  C   UNL     1      25.798 -41.677  14.947  1.00  0.00     0.179 C 
ATOM     21  C   UNL     1      23.647 -40.996  13.871  1.00  0.00     0.178 C 
ATOM     22  C   UNL     1      24.533 -42.186  14.256  1.00  0.00     0.177 C 
BRANCH  18  23
ATOM     23  O   UNL     1      26.666 -40.260  16.672  1.00  0.00    -0.385 OA
ATOM     24  H   UNL     1      27.074 -39.707  15.969  1.00  0.00     0.211 HD
ENDBRANCH  18  23
BRANCH  20  25
ATOM     25  O   UNL     1      26.574 -42.802  15.394  1.00  0.00    -0.387 OA
ATOM     26  H   UNL     1      27.501 -42.552  15.190  1.00  0.00     0.211 HD
ENDBRANCH  20  25
BRANCH  21  27
ATOM     27  C   UNL     1      22.320 -41.463  13.264  1.00  0.00     0.191 C 
BRANCH  27  28
ATOM     28  O   UNL     1      21.822 -42.586  13.996  1.00  0.00    -0.394 OA
ATOM     29  H   UNL     1      20.979 -42.288  14.391  1.00  0.00     0.210 HD
ENDBRANCH  27  28
ENDBRANCH  21  27
BRANCH  22  30
ATOM     30  O   UNL     1      24.903 -42.957  13.109  1.00  0.00    -0.387 OA
ATOM     31  H   UNL     1      25.881 -42.902  13.076  1.00  0.00     0.211 HD
ENDBRANCH  22  30
ENDBRANCH   1  17
TORSDOF 10
ENDMDL
MODEL 6
REMARK VINA RESULT:    -7.271      2.231      6.558
REMARK INTER + INTRA:         -11.385
REMARK INTER:                 -10.548
REMARK INTRA:                  -0.837
REMARK UNBOUND:                -0.925
REMARK SMILES O=C([O-])C1=CO[C@@H](O[C@@H]2O[C@H](CO)[C@@H](O)[C@H](O)[C@H]2O)[C@@H]2[C@@H](CO)CC[C@H]12
REMARK SMILES IDX 8 1 7 2 24 3 25 4 21 5 26 6 20 7 4 8 5 9 6 10 22 11 23 12
REMARK SMILES IDX 2 14 1 15 3 16 9 17 18 18 10 19 16 20 11 21 14 22 19 23
REMARK SMILES IDX 17 25 12 27 13 28 15 30
REMARK H PARENT 23 13 19 24 17 26 13 29 15 31
ROOT
ATOM      1  O   UNL     1      24.737 -35.286  19.360  1.00  0.00    -0.310 OA
ENDROOT
BRANCH   1   2
ATOM      2  C   UNL     1      23.848 -35.081  18.251  1.00  0.00     0.313 C 
ATOM      3  C   UNL     1      25.016 -34.362  14.711  1.00  0.00     0.007 C 
ATOM      4  C   UNL     1      25.868 -35.571  15.093  1.00  0.00     0.009 C 
ATOM      5  C   UNL     1      23.919 -34.314  15.768  1.00  0.00     0.024 C 
ATOM      6  C   UNL     1      25.590 -35.861  16.583  1.00  0.00     0.034 C 
ATOM      7  C   UNL     1      24.698 -34.685  17.042  1.00  0.00     0.071 C 
ATOM      8  C   UNL     1      24.901 -37.184  16.799  1.00  0.00     0.013 C 
ATOM      9  C   UNL     1      23.719 -37.280  17.421  1.00  0.00     0.196 C 
ATOM     10  O   UNL     1      23.036 -36.236  17.993  1.00  0.00    -0.472 OA
BRANCH   5  11
ATOM     11  C   UNL     1      23.229 -32.958  15.821  1.00  0.00     0.160 C 
BRANCH  11  12
ATOM     12  O   UNL     1      24.017 -31.960  15.185  1.00  0.00    -0.396 OA
ATOM     13  H   UNL     1      24.907 -32.335  15.056  1.00  0.00     0.210 HD
ENDBRANCH  11  12
ENDBRANCH   5  11
BRANCH   8  14
ATOM     14  C   UNL     1      25.586 -38.470  16.294  1.00  0.00     0.071 C 
ATOM     15  O   UNL     1      24.890 -39.201  15.536  1.00  0.00    -0.545 OA
ATOM     16  O   UNL     1      26.768 -38.635  16.709  1.00  0.00    -0.545 OA
ENDBRANCH   8  14
ENDBRANCH   1   2
BRANCH   1  17
ATOM     17  C   UNL     1      24.424 -34.453  20.470  1.00  0.00     0.286 C 
ATOM     18  C   UNL     1      23.953 -35.397  21.591  1.00  0.00     0.202 C 
ATOM     19  O   UNL     1      25.590 -33.730  20.874  1.00  0.00    -0.341 OA
ATOM     20  C   UNL     1      23.706 -34.596  22.865  1.00  0.00     0.179 C 
ATOM     21  C   UNL     1      25.351 -32.909  22.031  1.00  0.00     0.178 C 
ATOM     22  C   UNL     1      24.939 -33.770  23.231  1.00  0.00     0.177 C 
BRANCH  18  23
ATOM     23  O   UNL     1      22.737 -36.080  21.254  1.00  0.00    -0.385 OA
ATOM     24  H   UNL     1      22.891 -37.031  21.451  1.00  0.00     0.211 HD
ENDBRANCH  18  23
BRANCH  20  25
ATOM     25  O   UNL     1      23.387 -35.474  23.958  1.00  0.00    -0.387 OA
ATOM     26  H   UNL     1      22.460 -35.249  24.185  1.00  0.00     0.211 HD
ENDBRANCH  20  25
BRANCH  21  27
ATOM     27  C   UNL     1      26.643 -32.137  22.319  1.00  0.00     0.191 C 
BRANCH  27  28
ATOM     28  O   UNL     1      26.675 -30.939  21.538  1.00  0.00    -0.394 OA
ATOM     29  H   UNL     1      26.604 -30.206  22.181  1.00  0.00     0.210 HD
ENDBRANCH  27  28
ENDBRANCH  21  27
BRANCH  22  30
ATOM     30  O   UNL     1      24.642 -32.966  24.376  1.00  0.00    -0.387 OA
ATOM     31  H   UNL     1      25.516 -32.695  24.725  1.00  0.00     0.211 HD
ENDBRANCH  22  30
ENDBRANCH   1  17
TORSDOF 10
ENDMDL
MODEL 7
REMARK VINA RESULT:    -7.204      3.060      5.187
REMARK INTER + INTRA:         -11.288
REMARK INTER:                 -10.092
REMARK INTRA:                  -1.195
REMARK UNBOUND:                -0.925
REMARK SMILES O=C([O-])C1=CO[C@@H](O[C@@H]2O[C@H](CO)[C@@H](O)[C@H](O)[C@H]2O)[C@@H]2[C@@H](CO)CC[C@H]12
REMARK SMILES IDX 8 1 7 2 24 3 25 4 21 5 26 6 20 7 4 8 5 9 6 10 22 11 23 12
REMARK SMILES IDX 2 14 1 15 3 16 9 17 18 18 10 19 16 20 11 21 14 22 19 23
REMARK SMILES IDX 17 25 12 27 13 28 15 30
REMARK H PARENT 23 13 19 24 17 26 13 29 15 31
ROOT
ATOM      1  O   UNL     1      26.099 -35.811  20.417  1.00  0.00    -0.310 OA
ENDROOT
BRANCH   1   2
ATOM      2  C   UNL     1      24.885 -35.281  19.864  1.00  0.00     0.313 C 
ATOM      3  C   UNL     1      21.459 -36.817  20.430  1.00  0.00     0.007 C 
ATOM      4  C   UNL     1      22.020 -36.748  21.848  1.00  0.00     0.009 C 
ATOM      5  C   UNL     1      22.378 -35.921  19.607  1.00  0.00     0.024 C 
ATOM      6  C   UNL     1      23.485 -36.278  21.727  1.00  0.00     0.034 C 
ATOM      7  C   UNL     1      23.756 -36.255  20.206  1.00  0.00     0.071 C 
ATOM      8  C   UNL     1      23.714 -34.922  22.342  1.00  0.00     0.013 C 
ATOM      9  C   UNL     1      24.202 -33.892  21.639  1.00  0.00     0.196 C 
ATOM     10  O   UNL     1      24.617 -33.950  20.332  1.00  0.00    -0.472 OA
BRANCH   5  11
ATOM     11  C   UNL     1      22.256 -36.186  18.113  1.00  0.00     0.160 C 
BRANCH  11  12
ATOM     12  O   UNL     1      23.185 -37.178  17.694  1.00  0.00    -0.396 OA
ATOM     13  H   UNL     1      23.123 -37.917  18.326  1.00  0.00     0.210 HD
ENDBRANCH  11  12
ENDBRANCH   5  11
BRANCH   8  14
ATOM     14  C   UNL     1      23.382 -34.717  23.834  1.00  0.00     0.071 C 
ATOM     15  O   UNL     1      23.874 -35.567  24.629  1.00  0.00    -0.545 OA
ATOM     16  O   UNL     1      22.648 -33.717  24.077  1.00  0.00    -0.545 OA
ENDBRANCH   8  14
ENDBRANCH   1   2
BRANCH   1  17
ATOM     17  C   UNL     1      26.750 -36.714  19.531  1.00  0.00     0.286 C 
ATOM     18  C   UNL     1      26.332 -38.126  19.979  1.00  0.00     0.202 C 
ATOM     19  O   UNL     1      26.325 -36.463  18.189  1.00  0.00    -0.341 OA
ATOM     20  C   UNL     1      26.894 -39.159  19.009  1.00  0.00     0.179 C 
ATOM     21  C   UNL     1      26.909 -37.384  17.249  1.00  0.00     0.178 C 
ATOM     22  C   UNL     1      26.493 -38.824  17.572  1.00  0.00     0.177 C 
BRANCH  18  23
ATOM     23  O   UNL     1      26.813 -38.446  21.293  1.00  0.00    -0.385 OA
ATOM     24  H   UNL     1      27.367 -39.252  21.196  1.00  0.00     0.211 HD
ENDBRANCH  18  23
BRANCH  20  25
ATOM     25  O   UNL     1      26.411 -40.473  19.336  1.00  0.00    -0.387 OA
ATOM     26  H   UNL     1      26.962 -41.075  18.790  1.00  0.00     0.211 HD
ENDBRANCH  20  25
BRANCH  21  27
ATOM     27  C   UNL     1      26.437 -36.969  15.851  1.00  0.00     0.191 C 
BRANCH  27  28
ATOM     28  O   UNL     1      25.182 -37.588  15.560  1.00  0.00    -0.394 OA
ATOM     29  H   UNL     1      24.654 -37.506  16.380  1.00  0.00     0.210 HD
ENDBRANCH  27  28
ENDBRANCH  21  27
BRANCH  22  30
ATOM     30  O   UNL     1      27.108 -39.759  16.682  1.00  0.00    -0.387 OA
ATOM     31  H   UNL     1      26.847 -39.461  15.786  1.00  0.00     0.211 HD
ENDBRANCH  22  30
ENDBRANCH   1  17
TORSDOF 10
ENDMDL
MODEL 8
REMARK VINA RESULT:    -7.183      3.325      5.716
REMARK INTER + INTRA:         -11.257
REMARK INTER:                 -10.713
REMARK INTRA:                  -0.544
REMARK UNBOUND:                -0.925
REMARK SMILES O=C([O-])C1=CO[C@@H](O[C@@H]2O[C@H](CO)[C@@H](O)[C@H](O)[C@H]2O)[C@@H]2[C@@H](CO)CC[C@H]12
REMARK SMILES IDX 8 1 7 2 24 3 25 4 21 5 26 6 20 7 4 8 5 9 6 10 22 11 23 12
REMARK SMILES IDX 2 14 1 15 3 16 9 17 18 18 10 19 16 20 11 21 14 22 19 23
REMARK SMILES IDX 17 25 12 27 13 28 15 30
REMARK H PARENT 23 13 19 24 17 26 13 29 15 31
ROOT
ATOM      1  O   UNL     1      25.563 -36.797  20.406  1.00  0.00    -0.310 OA
ENDROOT
BRANCH   1   2
ATOM      2  C   UNL     1      24.137 -36.630  20.383  1.00  0.00     0.313 C 
ATOM      3  C   UNL     1      22.016 -36.145  23.495  1.00  0.00     0.007 C 
ATOM      4  C   UNL     1      23.134 -35.125  23.704  1.00  0.00     0.009 C 
ATOM      5  C   UNL     1      22.124 -36.540  22.026  1.00  0.00     0.024 C 
ATOM      6  C   UNL     1      24.154 -35.341  22.565  1.00  0.00     0.034 C 
ATOM      7  C   UNL     1      23.650 -36.605  21.833  1.00  0.00     0.071 C 
ATOM      8  C   UNL     1      24.236 -34.164  21.628  1.00  0.00     0.013 C 
ATOM      9  C   UNL     1      24.003 -34.281  20.314  1.00  0.00     0.196 C 
ATOM     10  O   UNL     1      23.745 -35.456  19.655  1.00  0.00    -0.472 OA
BRANCH   5  11
ATOM     11  C   UNL     1      21.393 -37.841  21.724  1.00  0.00     0.160 C 
BRANCH  11  12
ATOM     12  O   UNL     1      20.518 -38.193  22.789  1.00  0.00    -0.396 OA
ATOM     13  H   UNL     1      20.926 -37.873  23.614  1.00  0.00     0.210 HD
ENDBRANCH  11  12
ENDBRANCH   5  11
BRANCH   8  14
ATOM     14  C   UNL     1      24.608 -32.782  22.201  1.00  0.00     0.071 C 
ATOM     15  O   UNL     1      23.813 -32.313  23.063  1.00  0.00    -0.545 OA
ATOM     16  O   UNL     1      25.669 -32.284  21.728  1.00  0.00    -0.545 OA
ENDBRANCH   8  14
ENDBRANCH   1   2
BRANCH   1  17
ATOM     17  C   UNL     1      26.008 -37.798  19.498  1.00  0.00     0.286 C 
ATOM     18  C   UNL     1      26.898 -37.076  18.470  1.00  0.00     0.202 C 
ATOM     19  O   UNL     1      26.756 -38.791  20.205  1.00  0.00    -0.341 OA
ATOM     20  C   UNL     1      27.516 -38.096  17.522  1.00  0.00     0.179 C 
ATOM     21  C   UNL     1      27.282 -39.806  19.330  1.00  0.00     0.178 C 
ATOM     22  C   UNL     1      28.242 -39.191  18.304  1.00  0.00     0.177 C 
BRANCH  18  23
ATOM     23  O   UNL     1      26.162 -36.127  17.683  1.00  0.00    -0.385 OA
ATOM     24  H   UNL     1      26.227 -36.433  16.752  1.00  0.00     0.211 HD
ENDBRANCH  18  23
BRANCH  20  25
ATOM     25  O   UNL     1      28.450 -37.457  16.634  1.00  0.00    -0.387 OA
ATOM     26  H   UNL     1      29.164 -38.120  16.519  1.00  0.00     0.211 HD
ENDBRANCH  20  25
BRANCH  21  27
ATOM     27  C   UNL     1      27.995 -40.840  20.208  1.00  0.00     0.191 C 
BRANCH  27  28
ATOM     28  O   UNL     1      27.455 -40.807  21.531  1.00  0.00    -0.394 OA
ATOM     29  H   UNL     1      28.228 -40.739  22.127  1.00  0.00     0.210 HD
ENDBRANCH  27  28
ENDBRANCH  21  27
BRANCH  22  30
ATOM     30  O   UNL     1      28.732 -40.175  17.389  1.00  0.00    -0.387 OA
ATOM     31  H   UNL     1      28.547 -41.034  17.824  1.00  0.00     0.211 HD
ENDBRANCH  22  30
ENDBRANCH   1  17
TORSDOF 10
ENDMDL
MODEL 9
REMARK VINA RESULT:    -7.064      2.645      5.219
REMARK INTER + INTRA:         -11.086
REMARK INTER:                 -10.142
REMARK INTRA:                  -0.944
REMARK UNBOUND:                -0.925
REMARK SMILES O=C([O-])C1=CO[C@@H](O[C@@H]2O[C@H](CO)[C@@H](O)[C@H](O)[C@H]2O)[C@@H]2[C@@H](CO)CC[C@H]12
REMARK SMILES IDX 8 1 7 2 24 3 25 4 21 5 26 6 20 7 4 8 5 9 6 10 22 11 23 12
REMARK SMILES IDX 2 14 1 15 3 16 9 17 18 18 10 19 16 20 11 21 14 22 19 23
REMARK SMILES IDX 17 25 12 27 13 28 15 30
REMARK H PARENT 23 13 19 24 17 26 13 29 15 31
ROOT
ATOM      1  O   UNL     1      26.066 -35.506  20.549  1.00  0.00    -0.310 OA
ENDROOT
BRANCH   1   2
ATOM      2  C   UNL     1      24.649 -35.339  20.392  1.00  0.00     0.313 C 
ATOM      3  C   UNL     1      22.100 -36.330  23.026  1.00  0.00     0.007 C 
ATOM      4  C   UNL     1      23.112 -35.528  23.842  1.00  0.00     0.009 C 
ATOM      5  C   UNL     1      22.431 -36.005  21.574  1.00  0.00     0.024 C 
ATOM      6  C   UNL     1      24.288 -35.201  22.897  1.00  0.00     0.034 C 
ATOM      7  C   UNL     1      23.969 -35.982  21.603  1.00  0.00     0.071 C 
ATOM      8  C   UNL     1      24.422 -33.725  22.624  1.00  0.00     0.013 C 
ATOM      9  C   UNL     1      24.376 -33.221  21.384  1.00  0.00     0.196 C 
ATOM     10  O   UNL     1      24.285 -33.959  20.231  1.00  0.00    -0.472 OA
BRANCH   5  11
ATOM     11  C   UNL     1      21.831 -37.015  20.606  1.00  0.00     0.160 C 
BRANCH  11  12
ATOM     12  O   UNL     1      22.519 -38.258  20.675  1.00  0.00    -0.396 OA
ATOM     13  H   UNL     1      21.942 -38.930  20.270  1.00  0.00     0.210 HD
ENDBRANCH  11  12
ENDBRANCH   5  11
BRANCH   8  14
ATOM     14  C   UNL     1      24.623 -32.764  23.814  1.00  0.00     0.071 C 
ATOM     15  O   UNL     1      23.590 -32.158  24.211  1.00  0.00    -0.545 OA
ATOM     16  O   UNL     1      25.811 -32.699  24.242  1.00  0.00    -0.545 OA
ENDBRANCH   8  14
ENDBRANCH   1   2
BRANCH   1  17
ATOM     17  C   UNL     1      26.632 -36.331  19.537  1.00  0.00     0.286 C 
ATOM     18  C   UNL     1      26.136 -37.759  19.824  1.00  0.00     0.202 C 
ATOM     19  O   UNL     1      26.185 -35.889  18.252  1.00  0.00    -0.341 OA
ATOM     20  C   UNL     1      26.601 -38.696  18.715  1.00  0.00     0.179 C 
ATOM     21  C   UNL     1      26.680 -36.720  17.186  1.00  0.00     0.178 C 
ATOM     22  C   UNL     1      26.181 -38.161  17.345  1.00  0.00     0.177 C 
BRANCH  18  23
ATOM     23  O   UNL     1      26.632 -38.268  21.071  1.00  0.00    -0.385 OA
ATOM     24  H   UNL     1      27.550 -37.930  21.161  1.00  0.00     0.211 HD
ENDBRANCH  18  23
BRANCH  20  25
ATOM     25  O   UNL     1      26.043 -40.008  18.897  1.00  0.00    -0.387 OA
ATOM     26  H   UNL     1      25.306 -39.871  19.531  1.00  0.00     0.211 HD
ENDBRANCH  20  25
BRANCH  21  27
ATOM     27  C   UNL     1      26.197 -36.107  15.867  1.00  0.00     0.191 C 
BRANCH  27  28
ATOM     28  O   UNL     1      25.063 -36.831  15.384  1.00  0.00    -0.394 OA
ATOM     29  H   UNL     1      24.904 -37.537  16.042  1.00  0.00     0.210 HD
ENDBRANCH  27  28
ENDBRANCH  21  27
BRANCH  22  30
ATOM     30  O   UNL     1      26.709 -39.015  16.326  1.00  0.00    -0.387 OA
ATOM     31  H   UNL     1      26.084 -38.926  15.577  1.00  0.00     0.211 HD
ENDBRANCH  22  30
ENDBRANCH   1  17
TORSDOF 10
ENDMDL
