MODEL 1
REMARK VINA RESULT:    -6.922      0.000      0.000
REMARK INTER + INTRA:          -8.079
REMARK INTER:                  -7.934
REMARK INTRA:                  -0.145
REMARK UNBOUND:                -0.145
REMARK SMILES O=C([O-])/C=C/c1ccc(O)cc1
REMARK SMILES IDX 7 1 8 2 9 3 11 4 12 5 6 6 5 7 4 8 2 9 1 10 3 11 10 12
REMARK H PARENT 10 13
ROOT
ATOM      1  C   UNL     1      24.430 -32.133  14.808  1.00  0.00     0.012 A 
ATOM      2  C   UNL     1      25.398 -31.704  13.896  1.00  0.00     0.047 A 
ATOM      3  C   UNL     1      26.361 -32.597  13.445  1.00  0.00     0.115 A 
ATOM      4  C   UNL     1      26.375 -33.914  13.893  1.00  0.00     0.047 A 
ATOM      5  C   UNL     1      25.404 -34.338  14.806  1.00  0.00     0.012 A 
ATOM      6  C   UNL     1      24.414 -33.457  15.263  1.00  0.00    -0.025 A 
ENDROOT
BRANCH   6   7
ATOM      7  C   UNL     1      23.435 -33.947  16.244  1.00  0.00     0.010 C 
ATOM      8  C   UNL     1      23.724 -34.725  17.299  1.00  0.00     0.025 C 
BRANCH   8   9
ATOM      9  C   UNL     1      22.653 -35.189  18.289  1.00  0.00     0.064 C 
ATOM     10  O   UNL     1      21.632 -35.687  17.736  1.00  0.00    -0.545 OA
ATOM     11  O   UNL     1      22.909 -35.025  19.514  1.00  0.00    -0.545 OA
ENDBRANCH   8   9
ENDBRANCH   6   7
BRANCH   3  12
ATOM     12  O   UNL     1      27.290 -32.142  12.555  1.00  0.00    -0.508 OA
ATOM     13  H   UNL     1      27.787 -32.909  12.225  1.00  0.00     0.293 HD
ENDBRANCH   3  12
TORSDOF 3
ENDMDL
MODEL 2
REMARK VINA RESULT:    -6.807      0.144      1.398
REMARK INTER + INTRA:          -7.947
REMARK INTER:                  -7.813
REMARK INTRA:                  -0.134
REMARK UNBOUND:                -0.145
REMARK SMILES O=C([O-])/C=C/c1ccc(O)cc1
REMARK SMILES IDX 7 1 8 2 9 3 11 4 12 5 6 6 5 7 4 8 2 9 1 10 3 11 10 12
REMARK H PARENT 10 13
ROOT
ATOM      1  C   UNL     1      25.560 -34.387  14.809  1.00  0.00     0.012 A 
ATOM      2  C   UNL     1      26.476 -33.849  13.901  1.00  0.00     0.047 A 
ATOM      3  C   UNL     1      26.342 -32.530  13.488  1.00  0.00     0.115 A 
ATOM      4  C   UNL     1      25.303 -31.738  13.964  1.00  0.00     0.047 A 
ATOM      5  C   UNL     1      24.388 -32.280  14.872  1.00  0.00     0.012 A 
ATOM      6  C   UNL     1      24.513 -33.605  15.314  1.00  0.00    -0.025 A 
ENDROOT
BRANCH   6   7
ATOM      7  C   UNL     1      23.507 -34.134  16.246  1.00  0.00     0.010 C 
ATOM      8  C   UNL     1      23.778 -34.729  17.418  1.00  0.00     0.025 C 
BRANCH   8   9
ATOM      9  C   UNL     1      22.677 -35.246  18.346  1.00  0.00     0.064 C 
ATOM     10  O   UNL     1      21.643 -35.642  17.735  1.00  0.00    -0.545 OA
ATOM     11  O   UNL     1      22.924 -35.220  19.583  1.00  0.00    -0.545 OA
ENDBRANCH   8   9
ENDBRANCH   6   7
BRANCH   3  12
ATOM     12  O   UNL     1      27.256 -32.040  12.601  1.00  0.00    -0.508 OA
ATOM     13  H   UNL     1      28.142 -32.232  12.949  1.00  0.00     0.293 HD
ENDBRANCH   3  12
TORSDOF 3
ENDMDL
MODEL 3
REMARK VINA RESULT:    -6.489      2.938      6.434
REMARK INTER + INTRA:          -7.582
REMARK INTER:                  -7.446
REMARK INTRA:                  -0.137
REMARK UNBOUND:                -0.145
REMARK SMILES O=C([O-])/C=C/c1ccc(O)cc1
REMARK SMILES IDX 7 1 8 2 9 3 11 4 12 5 6 6 5 7 4 8 2 9 1 10 3 11 10 12
REMARK H PARENT 10 13
ROOT
ATOM      1  C   UNL     1      23.764 -34.380  19.703  1.00  0.00     0.012 A 
ATOM      2  C   UNL     1      23.898 -34.772  21.038  1.00  0.00     0.047 A 
ATOM      3  C   UNL     1      23.188 -35.870  21.507  1.00  0.00     0.115 A 
ATOM      4  C   UNL     1      22.341 -36.581  20.663  1.00  0.00     0.047 A 
ATOM      5  C   UNL     1      22.210 -36.185  19.328  1.00  0.00     0.012 A 
ATOM      6  C   UNL     1      22.929 -35.089  18.830  1.00  0.00    -0.025 A 
ENDROOT
BRANCH   6   7
ATOM      7  C   UNL     1      22.732 -34.697  17.428  1.00  0.00     0.010 C 
ATOM      8  C   UNL     1      23.241 -33.595  16.856  1.00  0.00     0.025 C 
BRANCH   8   9
ATOM      9  C   UNL     1      23.005 -33.254  15.383  1.00  0.00     0.064 C 
ATOM     10  O   UNL     1      22.062 -32.434  15.197  1.00  0.00    -0.545 OA
ATOM     11  O   UNL     1      23.761 -33.818  14.545  1.00  0.00    -0.545 OA
ENDBRANCH   8   9
ENDBRANCH   6   7
BRANCH   3  12
ATOM     12  O   UNL     1      23.344 -36.223  22.815  1.00  0.00    -0.508 OA
ATOM     13  H   UNL     1      22.470 -36.197  23.237  1.00  0.00     0.293 HD
ENDBRANCH   3  12
TORSDOF 3
ENDMDL
MODEL 4
REMARK VINA RESULT:    -6.483      1.108      1.636
REMARK INTER + INTRA:          -7.575
REMARK INTER:                  -7.430
REMARK INTRA:                  -0.145
REMARK UNBOUND:                -0.145
REMARK SMILES O=C([O-])/C=C/c1ccc(O)cc1
REMARK SMILES IDX 7 1 8 2 9 3 11 4 12 5 6 6 5 7 4 8 2 9 1 10 3 11 10 12
REMARK H PARENT 10 13
ROOT
ATOM      1  C   UNL     1      23.724 -32.912  15.566  1.00  0.00     0.012 A 
ATOM      2  C   UNL     1      24.503 -32.525  14.472  1.00  0.00     0.047 A 
ATOM      3  C   UNL     1      25.568 -33.321  14.070  1.00  0.00     0.115 A 
ATOM      4  C   UNL     1      25.871 -34.498  14.747  1.00  0.00     0.047 A 
ATOM      5  C   UNL     1      25.090 -34.880  15.842  1.00  0.00     0.012 A 
ATOM      6  C   UNL     1      24.001 -34.099  16.256  1.00  0.00    -0.025 A 
ENDROOT
BRANCH   6   7
ATOM      7  C   UNL     1      23.231 -34.532  17.430  1.00  0.00     0.010 C 
ATOM      8  C   UNL     1      23.755 -35.082  18.536  1.00  0.00     0.025 C 
BRANCH   8   9
ATOM      9  C   UNL     1      22.892 -35.499  19.730  1.00  0.00     0.064 C 
ATOM     10  O   UNL     1      23.309 -35.054  20.837  1.00  0.00    -0.545 OA
ATOM     11  O   UNL     1      21.889 -36.221  19.475  1.00  0.00    -0.545 OA
ENDBRANCH   8   9
ENDBRANCH   6   7
BRANCH   3  12
ATOM     12  O   UNL     1      26.304 -32.912  12.997  1.00  0.00    -0.508 OA
ATOM     13  H   UNL     1      27.000 -33.572  12.844  1.00  0.00     0.293 HD
ENDBRANCH   3  12
TORSDOF 3
ENDMDL
MODEL 5
REMARK VINA RESULT:    -6.186      4.978      7.440
REMARK INTER + INTRA:          -7.234
REMARK INTER:                  -7.089
REMARK INTRA:                  -0.145
REMARK UNBOUND:                -0.145
REMARK SMILES O=C([O-])/C=C/c1ccc(O)cc1
REMARK SMILES IDX 7 1 8 2 9 3 11 4 12 5 6 6 5 7 4 8 2 9 1 10 3 11 10 12
REMARK H PARENT 10 13
ROOT
ATOM      1  C   UNL     1      24.414 -33.276  21.688  1.00  0.00     0.012 A 
ATOM      2  C   UNL     1      24.601 -32.896  23.020  1.00  0.00     0.047 A 
ATOM      3  C   UNL     1      24.223 -33.759  24.041  1.00  0.00     0.115 A 
ATOM      4  C   UNL     1      23.656 -34.996  23.753  1.00  0.00     0.047 A 
ATOM      5  C   UNL     1      23.471 -35.372  22.419  1.00  0.00     0.012 A 
ATOM      6  C   UNL     1      23.859 -34.523  21.372  1.00  0.00    -0.025 A 
ENDROOT
BRANCH   6   7
ATOM      7  C   UNL     1      23.614 -34.954  19.989  1.00  0.00     0.010 C 
ATOM      8  C   UNL     1      22.630 -35.779  19.601  1.00  0.00     0.025 C 
BRANCH   8   9
ATOM      9  C   UNL     1      22.426 -36.178  18.137  1.00  0.00     0.064 C 
ATOM     10  O   UNL     1      21.697 -35.373  17.490  1.00  0.00    -0.545 OA
ATOM     11  O   UNL     1      22.996 -37.237  17.757  1.00  0.00    -0.545 OA
ENDBRANCH   8   9
ENDBRANCH   6   7
BRANCH   3  12
ATOM     12  O   UNL     1      24.421 -33.354  25.328  1.00  0.00    -0.508 OA
ATOM     13  H   UNL     1      23.684 -32.773  25.575  1.00  0.00     0.293 HD
ENDBRANCH   3  12
TORSDOF 3
ENDMDL
MODEL 6
REMARK VINA RESULT:    -5.893      2.634      5.516
REMARK INTER + INTRA:          -6.900
REMARK INTER:                  -6.755
REMARK INTRA:                  -0.145
REMARK UNBOUND:                -0.145
REMARK SMILES O=C([O-])/C=C/c1ccc(O)cc1
REMARK SMILES IDX 7 1 8 2 9 3 11 4 12 5 6 6 5 7 4 8 2 9 1 10 3 11 10 12
REMARK H PARENT 10 13
ROOT
ATOM      1  C   UNL     1      25.815 -32.286  13.893  1.00  0.00     0.012 A 
ATOM      2  C   UNL     1      24.589 -31.847  14.399  1.00  0.00     0.047 A 
ATOM      3  C   UNL     1      23.791 -32.722  15.126  1.00  0.00     0.115 A 
ATOM      4  C   UNL     1      24.198 -34.034  15.352  1.00  0.00     0.047 A 
ATOM      5  C   UNL     1      25.426 -34.468  14.843  1.00  0.00     0.012 A 
ATOM      6  C   UNL     1      26.254 -33.597  14.120  1.00  0.00    -0.025 A 
ENDROOT
BRANCH   6   7
ATOM      7  C   UNL     1      27.520 -34.114  13.583  1.00  0.00     0.010 C 
ATOM      8  C   UNL     1      28.335 -34.971  14.217  1.00  0.00     0.025 C 
BRANCH   8   9
ATOM      9  C   UNL     1      29.636 -35.478  13.591  1.00  0.00     0.064 C 
ATOM     10  O   UNL     1      30.273 -34.589  12.957  1.00  0.00    -0.545 OA
ATOM     11  O   UNL     1      29.915 -36.694  13.777  1.00  0.00    -0.545 OA
ENDBRANCH   8   9
ENDBRANCH   6   7
BRANCH   3  12
ATOM     12  O   UNL     1      22.601 -32.258  15.604  1.00  0.00    -0.508 OA
ATOM     13  H   UNL     1      21.901 -32.554  15.000  1.00  0.00     0.293 HD
ENDBRANCH   3  12
TORSDOF 3
ENDMDL
MODEL 7
REMARK VINA RESULT:    -5.802      4.695      7.049
REMARK INTER + INTRA:          -6.794
REMARK INTER:                  -6.645
REMARK INTRA:                  -0.149
REMARK UNBOUND:                -0.145
REMARK SMILES O=C([O-])/C=C/c1ccc(O)cc1
REMARK SMILES IDX 7 1 8 2 9 3 11 4 12 5 6 6 5 7 4 8 2 9 1 10 3 11 10 12
REMARK H PARENT 10 13
ROOT
ATOM      1  C   UNL     1      22.882 -36.147  21.232  1.00  0.00     0.012 A 
ATOM      2  C   UNL     1      22.300 -36.464  20.002  1.00  0.00     0.047 A 
ATOM      3  C   UNL     1      22.580 -35.685  18.886  1.00  0.00     0.115 A 
ATOM      4  C   UNL     1      23.432 -34.589  18.981  1.00  0.00     0.047 A 
ATOM      5  C   UNL     1      24.012 -34.276  20.214  1.00  0.00     0.012 A 
ATOM      6  C   UNL     1      23.755 -35.057  21.350  1.00  0.00    -0.025 A 
ENDROOT
BRANCH   6   7
ATOM      7  C   UNL     1      24.367 -34.667  22.627  1.00  0.00     0.010 C 
ATOM      8  C   UNL     1      25.031 -33.521  22.845  1.00  0.00     0.025 C 
BRANCH   8   9
ATOM      9  C   UNL     1      25.635 -33.173  24.208  1.00  0.00     0.064 C 
ATOM     10  O   UNL     1      24.783 -33.115  25.140  1.00  0.00    -0.545 OA
ATOM     11  O   UNL     1      26.882 -32.990  24.242  1.00  0.00    -0.545 OA
ENDBRANCH   8   9
ENDBRANCH   6   7
BRANCH   3  12
ATOM     12  O   UNL     1      21.993 -36.025  17.703  1.00  0.00    -0.508 OA
ATOM     13  H   UNL     1      22.689 -36.347  17.107  1.00  0.00     0.293 HD
ENDBRANCH   3  12
TORSDOF 3
ENDMDL
MODEL 8
REMARK VINA RESULT:    -5.794      1.130      5.869
REMARK INTER + INTRA:          -6.786
REMARK INTER:                  -6.633
REMARK INTRA:                  -0.153
REMARK UNBOUND:                -0.145
REMARK SMILES O=C([O-])/C=C/c1ccc(O)cc1
REMARK SMILES IDX 7 1 8 2 9 3 11 4 12 5 6 6 5 7 4 8 2 9 1 10 3 11 10 12
REMARK H PARENT 10 13
ROOT
ATOM      1  C   UNL     1      24.837 -35.889  16.751  1.00  0.00     0.012 A 
ATOM      2  C   UNL     1      23.828 -36.265  17.642  1.00  0.00     0.047 A 
ATOM      3  C   UNL     1      22.695 -35.472  17.773  1.00  0.00     0.115 A 
ATOM      4  C   UNL     1      22.554 -34.305  17.029  1.00  0.00     0.047 A 
ATOM      5  C   UNL     1      23.567 -33.933  16.139  1.00  0.00     0.012 A 
ATOM      6  C   UNL     1      24.712 -34.726  15.980  1.00  0.00    -0.025 A 
ENDROOT
BRANCH   6   7
ATOM      7  C   UNL     1      25.758 -34.273  15.053  1.00  0.00     0.010 C 
ATOM      8  C   UNL     1      25.685 -33.176  14.283  1.00  0.00     0.025 C 
BRANCH   8   9
ATOM      9  C   UNL     1      26.821 -32.757  13.347  1.00  0.00     0.064 C 
ATOM     10  O   UNL     1      27.804 -33.551  13.355  1.00  0.00    -0.545 OA
ATOM     11  O   UNL     1      26.647 -31.694  12.690  1.00  0.00    -0.545 OA
ENDBRANCH   8   9
ENDBRANCH   6   7
BRANCH   3  12
ATOM     12  O   UNL     1      21.732 -35.871  18.653  1.00  0.00    -0.508 OA
ATOM     13  H   UNL     1      21.312 -36.669  18.293  1.00  0.00     0.293 HD
ENDBRANCH   3  12
TORSDOF 3
ENDMDL
MODEL 9
REMARK VINA RESULT:    -5.729      2.368      3.558
REMARK INTER + INTRA:          -6.711
REMARK INTER:                  -6.566
REMARK INTRA:                  -0.145
REMARK UNBOUND:                -0.145
REMARK SMILES O=C([O-])/C=C/c1ccc(O)cc1
REMARK SMILES IDX 7 1 8 2 9 3 11 4 12 5 6 6 5 7 4 8 2 9 1 10 3 11 10 12
REMARK H PARENT 10 13
ROOT
ATOM      1  C   UNL     1      24.865 -35.543  17.018  1.00  0.00     0.012 A 
ATOM      2  C   UNL     1      25.069 -34.968  15.761  1.00  0.00     0.047 A 
ATOM      3  C   UNL     1      24.218 -33.962  15.319  1.00  0.00     0.115 A 
ATOM      4  C   UNL     1      23.163 -33.524  16.112  1.00  0.00     0.047 A 
ATOM      5  C   UNL     1      22.963 -34.103  17.369  1.00  0.00     0.012 A 
ATOM      6  C   UNL     1      23.818 -35.109  17.841  1.00  0.00    -0.025 A 
ENDROOT
BRANCH   6   7
ATOM      7  C   UNL     1      23.545 -35.704  19.157  1.00  0.00     0.010 C 
ATOM      8  C   UNL     1      22.382 -36.265  19.524  1.00  0.00     0.025 C 
BRANCH   8   9
ATOM      9  C   UNL     1      22.172 -36.877  20.910  1.00  0.00     0.064 C 
ATOM     10  O   UNL     1      23.215 -36.889  21.624  1.00  0.00    -0.545 OA
ATOM     11  O   UNL     1      21.009 -37.289  21.174  1.00  0.00    -0.545 OA
ENDBRANCH   8   9
ENDBRANCH   6   7
BRANCH   3  12
ATOM     12  O   UNL     1      24.448 -33.425  14.087  1.00  0.00    -0.508 OA
ATOM     13  H   UNL     1      23.858 -32.661  13.979  1.00  0.00     0.293 HD
ENDBRANCH   3  12
TORSDOF 3
ENDMDL
