MODEL 1
REMARK VINA RESULT:    -6.931      0.000      0.000
REMARK INTER + INTRA:          -8.088
REMARK INTER:                  -7.943
REMARK INTRA:                  -0.145
REMARK UNBOUND:                -0.145
REMARK SMILES O=C([O-])/C=C/c1ccc(O)cc1
REMARK SMILES IDX 7 1 8 2 9 3 11 4 12 5 6 6 5 7 4 8 2 9 1 10 3 11 10 12
REMARK H PARENT 10 13
ROOT
ATOM      1  C   UNL     1      24.373 -32.133  14.820  1.00  0.00     0.012 A 
ATOM      2  C   UNL     1      25.337 -31.683  13.913  1.00  0.00     0.047 A 
ATOM      3  C   UNL     1      26.327 -32.552  13.473  1.00  0.00     0.115 A 
ATOM      4  C   UNL     1      26.373 -33.866  13.929  1.00  0.00     0.047 A 
ATOM      5  C   UNL     1      25.407 -34.311  14.837  1.00  0.00     0.012 A 
ATOM      6  C   UNL     1      24.390 -33.455  15.283  1.00  0.00    -0.025 A 
ENDROOT
BRANCH   6   7
ATOM      7  C   UNL     1      23.418 -33.966  16.259  1.00  0.00     0.010 C 
ATOM      8  C   UNL     1      23.725 -34.686  17.349  1.00  0.00     0.025 C 
BRANCH   8   9
ATOM      9  C   UNL     1      22.660 -35.177  18.332  1.00  0.00     0.064 C 
ATOM     10  O   UNL     1      21.627 -35.641  17.771  1.00  0.00    -0.545 OA
ATOM     11  O   UNL     1      22.930 -35.064  19.559  1.00  0.00    -0.545 OA
ENDBRANCH   8   9
ENDBRANCH   6   7
BRANCH   3  12
ATOM     12  O   UNL     1      27.249 -32.077  12.588  1.00  0.00    -0.508 OA
ATOM     13  H   UNL     1      27.149 -32.572  11.759  1.00  0.00     0.293 HD
ENDBRANCH   3  12
TORSDOF 3
ENDMDL
MODEL 2
REMARK VINA RESULT:    -6.783      0.168      1.684
REMARK INTER + INTRA:          -7.919
REMARK INTER:                  -7.787
REMARK INTRA:                  -0.132
REMARK UNBOUND:                -0.145
REMARK SMILES O=C([O-])/C=C/c1ccc(O)cc1
REMARK SMILES IDX 7 1 8 2 9 3 11 4 12 5 6 6 5 7 4 8 2 9 1 10 3 11 10 12
REMARK H PARENT 10 13
ROOT
ATOM      1  C   UNL     1      25.640 -34.420  14.798  1.00  0.00     0.012 A 
ATOM      2  C   UNL     1      26.575 -33.898  13.901  1.00  0.00     0.047 A 
ATOM      3  C   UNL     1      26.446 -32.589  13.456  1.00  0.00     0.115 A 
ATOM      4  C   UNL     1      25.392 -31.791  13.891  1.00  0.00     0.047 A 
ATOM      5  C   UNL     1      24.458 -32.319  14.789  1.00  0.00     0.012 A 
ATOM      6  C   UNL     1      24.578 -33.633  15.262  1.00  0.00    -0.025 A 
ENDROOT
BRANCH   6   7
ATOM      7  C   UNL     1      23.553 -34.146  16.181  1.00  0.00     0.010 C 
ATOM      8  C   UNL     1      23.796 -34.677  17.390  1.00  0.00     0.025 C 
BRANCH   8   9
ATOM      9  C   UNL     1      22.676 -35.182  18.302  1.00  0.00     0.064 C 
ATOM     10  O   UNL     1      22.919 -35.033  19.533  1.00  0.00    -0.545 OA
ATOM     11  O   UNL     1      21.664 -35.675  17.732  1.00  0.00    -0.545 OA
ENDBRANCH   8   9
ENDBRANCH   6   7
BRANCH   3  12
ATOM     12  O   UNL     1      27.378 -32.114  12.581  1.00  0.00    -0.508 OA
ATOM     13  H   UNL     1      27.230 -32.547  11.724  1.00  0.00     0.293 HD
ENDBRANCH   3  12
TORSDOF 3
ENDMDL
MODEL 3
REMARK VINA RESULT:    -6.491      2.864      6.438
REMARK INTER + INTRA:          -7.585
REMARK INTER:                  -7.448
REMARK INTRA:                  -0.137
REMARK UNBOUND:                -0.145
REMARK SMILES O=C([O-])/C=C/c1ccc(O)cc1
REMARK SMILES IDX 7 1 8 2 9 3 11 4 12 5 6 6 5 7 4 8 2 9 1 10 3 11 10 12
REMARK H PARENT 10 13
ROOT
ATOM      1  C   UNL     1      23.695 -34.386  19.695  1.00  0.00     0.012 A 
ATOM      2  C   UNL     1      23.788 -34.778  21.033  1.00  0.00     0.047 A 
ATOM      3  C   UNL     1      23.067 -35.878  21.479  1.00  0.00     0.115 A 
ATOM      4  C   UNL     1      22.251 -36.594  20.609  1.00  0.00     0.047 A 
ATOM      5  C   UNL     1      22.161 -36.198  19.271  1.00  0.00     0.012 A 
ATOM      6  C   UNL     1      22.891 -35.099  18.796  1.00  0.00    -0.025 A 
ENDROOT
BRANCH   6   7
ATOM      7  C   UNL     1      22.738 -34.708  17.388  1.00  0.00     0.010 C 
ATOM      8  C   UNL     1      23.268 -33.608  16.830  1.00  0.00     0.025 C 
BRANCH   8   9
ATOM      9  C   UNL     1      23.077 -33.269  15.350  1.00  0.00     0.064 C 
ATOM     10  O   UNL     1      22.125 -32.466  15.133  1.00  0.00    -0.545 OA
ATOM     11  O   UNL     1      23.873 -33.816  14.539  1.00  0.00    -0.545 OA
ENDBRANCH   8   9
ENDBRANCH   6   7
BRANCH   3  12
ATOM     12  O   UNL     1      23.183 -36.230  22.792  1.00  0.00    -0.508 OA
ATOM     13  H   UNL     1      23.563 -37.123  22.829  1.00  0.00     0.293 HD
ENDBRANCH   3  12
TORSDOF 3
ENDMDL
MODEL 4
REMARK VINA RESULT:    -6.484      1.097      1.627
REMARK INTER + INTRA:          -7.576
REMARK INTER:                  -7.432
REMARK INTRA:                  -0.144
REMARK UNBOUND:                -0.145
REMARK SMILES O=C([O-])/C=C/c1ccc(O)cc1
REMARK SMILES IDX 7 1 8 2 9 3 11 4 12 5 6 6 5 7 4 8 2 9 1 10 3 11 10 12
REMARK H PARENT 10 13
ROOT
ATOM      1  C   UNL     1      23.730 -32.964  15.561  1.00  0.00     0.012 A 
ATOM      2  C   UNL     1      24.512 -32.573  14.470  1.00  0.00     0.047 A 
ATOM      3  C   UNL     1      25.576 -33.368  14.066  1.00  0.00     0.115 A 
ATOM      4  C   UNL     1      25.876 -34.550  14.737  1.00  0.00     0.047 A 
ATOM      5  C   UNL     1      25.091 -34.937  15.828  1.00  0.00     0.012 A 
ATOM      6  C   UNL     1      24.003 -34.157  16.244  1.00  0.00    -0.025 A 
ENDROOT
BRANCH   6   7
ATOM      7  C   UNL     1      23.229 -34.595  17.414  1.00  0.00     0.010 C 
ATOM      8  C   UNL     1      23.755 -35.082  18.548  1.00  0.00     0.025 C 
BRANCH   8   9
ATOM      9  C   UNL     1      22.888 -35.509  19.734  1.00  0.00     0.064 C 
ATOM     10  O   UNL     1      23.299 -35.071  20.846  1.00  0.00    -0.545 OA
ATOM     11  O   UNL     1      21.887 -36.231  19.470  1.00  0.00    -0.545 OA
ENDBRANCH   8   9
ENDBRANCH   6   7
BRANCH   3  12
ATOM     12  O   UNL     1      26.316 -32.954  12.998  1.00  0.00    -0.508 OA
ATOM     13  H   UNL     1      27.216 -33.303  13.105  1.00  0.00     0.293 HD
ENDBRANCH   3  12
TORSDOF 3
ENDMDL
MODEL 5
REMARK VINA RESULT:    -6.229      1.290      2.336
REMARK INTER + INTRA:          -7.284
REMARK INTER:                  -7.149
REMARK INTRA:                  -0.135
REMARK UNBOUND:                -0.145
REMARK SMILES O=C([O-])/C=C/c1ccc(O)cc1
REMARK SMILES IDX 7 1 8 2 9 3 11 4 12 5 6 6 5 7 4 8 2 9 1 10 3 11 10 12
REMARK H PARENT 10 13
ROOT
ATOM      1  C   UNL     1      25.056 -35.069  16.085  1.00  0.00     0.012 A 
ATOM      2  C   UNL     1      25.757 -34.688  14.938  1.00  0.00     0.047 A 
ATOM      3  C   UNL     1      25.362 -33.558  14.234  1.00  0.00     0.115 A 
ATOM      4  C   UNL     1      24.273 -32.802  14.656  1.00  0.00     0.047 A 
ATOM      5  C   UNL     1      23.574 -33.187  15.804  1.00  0.00     0.012 A 
ATOM      6  C   UNL     1      23.965 -34.316  16.539  1.00  0.00    -0.025 A 
ENDROOT
BRANCH   6   7
ATOM      7  C   UNL     1      23.178 -34.693  17.721  1.00  0.00     0.010 C 
ATOM      8  C   UNL     1      23.634 -35.423  18.751  1.00  0.00     0.025 C 
BRANCH   8   9
ATOM      9  C   UNL     1      22.761 -35.768  19.959  1.00  0.00     0.064 C 
ATOM     10  O   UNL     1      23.168 -35.259  21.041  1.00  0.00    -0.545 OA
ATOM     11  O   UNL     1      21.759 -36.503  19.738  1.00  0.00    -0.545 OA
ENDBRANCH   8   9
ENDBRANCH   6   7
BRANCH   3  12
ATOM     12  O   UNL     1      26.070 -33.217  13.119  1.00  0.00    -0.508 OA
ATOM     13  H   UNL     1      27.013 -33.221  13.352  1.00  0.00     0.293 HD
ENDBRANCH   3  12
TORSDOF 3
ENDMDL
MODEL 6
REMARK VINA RESULT:    -6.153      4.948      7.531
REMARK INTER + INTRA:          -7.197
REMARK INTER:                  -7.063
REMARK INTRA:                  -0.134
REMARK UNBOUND:                -0.145
REMARK SMILES O=C([O-])/C=C/c1ccc(O)cc1
REMARK SMILES IDX 7 1 8 2 9 3 11 4 12 5 6 6 5 7 4 8 2 9 1 10 3 11 10 12
REMARK H PARENT 10 13
ROOT
ATOM      1  C   UNL     1      23.405 -35.435  22.498  1.00  0.00     0.012 A 
ATOM      2  C   UNL     1      23.633 -35.022  23.813  1.00  0.00     0.047 A 
ATOM      3  C   UNL     1      24.206 -33.780  24.055  1.00  0.00     0.115 A 
ATOM      4  C   UNL     1      24.559 -32.943  23.002  1.00  0.00     0.047 A 
ATOM      5  C   UNL     1      24.328 -33.360  21.687  1.00  0.00     0.012 A 
ATOM      6  C   UNL     1      23.738 -34.603  21.421  1.00  0.00    -0.025 A 
ENDROOT
BRANCH   6   7
ATOM      7  C   UNL     1      23.545 -35.005  20.020  1.00  0.00     0.010 C 
ATOM      8  C   UNL     1      22.573 -35.817  19.578  1.00  0.00     0.025 C 
BRANCH   8   9
ATOM      9  C   UNL     1      22.424 -36.185  18.099  1.00  0.00     0.064 C 
ATOM     10  O   UNL     1      21.720 -35.366  17.442  1.00  0.00    -0.545 OA
ATOM     11  O   UNL     1      23.008 -37.236  17.718  1.00  0.00    -0.545 OA
ENDBRANCH   8   9
ENDBRANCH   6   7
BRANCH   3  12
ATOM     12  O   UNL     1      24.414 -33.412  25.352  1.00  0.00    -0.508 OA
ATOM     13  H   UNL     1      25.028 -32.659  25.354  1.00  0.00     0.293 HD
ENDBRANCH   3  12
TORSDOF 3
ENDMDL
MODEL 7
REMARK VINA RESULT:    -5.905      1.840      5.972
REMARK INTER + INTRA:          -6.913
REMARK INTER:                  -6.775
REMARK INTRA:                  -0.138
REMARK UNBOUND:                -0.145
REMARK SMILES O=C([O-])/C=C/c1ccc(O)cc1
REMARK SMILES IDX 7 1 8 2 9 3 11 4 12 5 6 6 5 7 4 8 2 9 1 10 3 11 10 12
REMARK H PARENT 10 13
ROOT
ATOM      1  C   UNL     1      24.710 -36.183  17.228  1.00  0.00     0.012 A 
ATOM      2  C   UNL     1      24.377 -37.190  18.137  1.00  0.00     0.047 A 
ATOM      3  C   UNL     1      23.169 -37.129  18.821  1.00  0.00     0.115 A 
ATOM      4  C   UNL     1      22.288 -36.072  18.613  1.00  0.00     0.047 A 
ATOM      5  C   UNL     1      22.626 -35.066  17.702  1.00  0.00     0.012 A 
ATOM      6  C   UNL     1      23.833 -35.116  16.991  1.00  0.00    -0.025 A 
ENDROOT
BRANCH   6   7
ATOM      7  C   UNL     1      24.152 -34.018  16.068  1.00  0.00     0.010 C 
ATOM      8  C   UNL     1      25.060 -34.078  15.081  1.00  0.00     0.025 C 
BRANCH   8   9
ATOM      9  C   UNL     1      25.333 -32.897  14.148  1.00  0.00     0.064 C 
ATOM     10  O   UNL     1      26.058 -33.192  13.156  1.00  0.00    -0.545 OA
ATOM     11  O   UNL     1      24.813 -31.793  14.469  1.00  0.00    -0.545 OA
ENDBRANCH   8   9
ENDBRANCH   6   7
BRANCH   3  12
ATOM     12  O   UNL     1      22.878 -38.130  19.700  1.00  0.00    -0.508 OA
ATOM     13  H   UNL     1      22.206 -38.699  19.292  1.00  0.00     0.293 HD
ENDBRANCH   3  12
TORSDOF 3
ENDMDL
MODEL 8
REMARK VINA RESULT:    -5.863      2.482      5.882
REMARK INTER + INTRA:          -6.864
REMARK INTER:                  -6.727
REMARK INTRA:                  -0.138
REMARK UNBOUND:                -0.145
REMARK SMILES O=C([O-])/C=C/c1ccc(O)cc1
REMARK SMILES IDX 7 1 8 2 9 3 11 4 12 5 6 6 5 7 4 8 2 9 1 10 3 11 10 12
REMARK H PARENT 10 13
ROOT
ATOM      1  C   UNL     1      25.645 -34.510  14.811  1.00  0.00     0.012 A 
ATOM      2  C   UNL     1      24.427 -34.209  15.426  1.00  0.00     0.047 A 
ATOM      3  C   UNL     1      23.864 -32.950  15.260  1.00  0.00     0.115 A 
ATOM      4  C   UNL     1      24.503 -31.982  14.492  1.00  0.00     0.047 A 
ATOM      5  C   UNL     1      25.722 -32.287  13.879  1.00  0.00     0.012 A 
ATOM      6  C   UNL     1      26.300 -33.557  14.020  1.00  0.00    -0.025 A 
ENDROOT
BRANCH   6   7
ATOM      7  C   UNL     1      27.597 -33.815  13.379  1.00  0.00     0.010 C 
ATOM      8  C   UNL     1      28.640 -34.423  13.964  1.00  0.00     0.025 C 
BRANCH   8   9
ATOM      9  C   UNL     1      29.960 -34.670  13.230  1.00  0.00     0.064 C 
ATOM     10  O   UNL     1      29.813 -35.156  12.072  1.00  0.00    -0.545 OA
ATOM     11  O   UNL     1      31.015 -34.367  13.851  1.00  0.00    -0.545 OA
ENDBRANCH   8   9
ENDBRANCH   6   7
BRANCH   3  12
ATOM     12  O   UNL     1      22.675 -32.694  15.876  1.00  0.00    -0.508 OA
ATOM     13  H   UNL     1      22.820 -32.736  16.835  1.00  0.00     0.293 HD
ENDBRANCH   3  12
TORSDOF 3
ENDMDL
MODEL 9
REMARK VINA RESULT:    -5.811      4.635      6.968
REMARK INTER + INTRA:          -6.805
REMARK INTER:                  -6.654
REMARK INTRA:                  -0.151
REMARK UNBOUND:                -0.145
REMARK SMILES O=C([O-])/C=C/c1ccc(O)cc1
REMARK SMILES IDX 7 1 8 2 9 3 11 4 12 5 6 6 5 7 4 8 2 9 1 10 3 11 10 12
REMARK H PARENT 10 13
ROOT
ATOM      1  C   UNL     1      22.776 -36.060  21.180  1.00  0.00     0.012 A 
ATOM      2  C   UNL     1      22.216 -36.383  19.941  1.00  0.00     0.047 A 
ATOM      3  C   UNL     1      22.535 -35.624  18.823  1.00  0.00     0.115 A 
ATOM      4  C   UNL     1      23.405 -34.543  18.922  1.00  0.00     0.047 A 
ATOM      5  C   UNL     1      23.963 -34.224  20.164  1.00  0.00     0.012 A 
ATOM      6  C   UNL     1      23.666 -34.985  21.303  1.00  0.00    -0.025 A 
ENDROOT
BRANCH   6   7
ATOM      7  C   UNL     1      24.257 -34.589  22.588  1.00  0.00     0.010 C 
ATOM      8  C   UNL     1      25.111 -33.568  22.763  1.00  0.00     0.025 C 
BRANCH   8   9
ATOM      9  C   UNL     1      25.680 -33.203  24.136  1.00  0.00     0.064 C 
ATOM     10  O   UNL     1      24.811 -33.177  25.054  1.00  0.00    -0.545 OA
ATOM     11  O   UNL     1      26.919 -32.977  24.191  1.00  0.00    -0.545 OA
ENDBRANCH   8   9
ENDBRANCH   6   7
BRANCH   3  12
ATOM     12  O   UNL     1      21.969 -35.969  17.631  1.00  0.00    -0.508 OA
ATOM     13  H   UNL     1      21.769 -35.151  17.148  1.00  0.00     0.293 HD
ENDBRANCH   3  12
TORSDOF 3
ENDMDL
