MODEL 1
REMARK VINA RESULT:    -6.573      0.000      0.000
REMARK INTER + INTRA:          -7.874
REMARK INTER:                  -7.726
REMARK INTRA:                  -0.148
REMARK UNBOUND:                -0.148
REMARK SMILES O=C([O-])/C=C/c1ccc(O)c(O)c1
REMARK SMILES IDX 7 1 8 2 9 3 11 4 13 5 6 6 5 7 4 8 2 9 1 10 3 11 10 12 12 14
REMARK H PARENT 10 13 12 15
ROOT
ATOM      1  C   UNL     1      23.738 -34.362  19.545  1.00  0.00     0.012 A 
ATOM      2  C   UNL     1      23.942 -34.714  20.883  1.00  0.00     0.051 A 
ATOM      3  C   UNL     1      23.269 -35.813  21.400  1.00  0.00     0.157 A 
ATOM      4  C   UNL     1      22.400 -36.548  20.598  1.00  0.00     0.157 A 
ATOM      5  C   UNL     1      22.194 -36.203  19.267  1.00  0.00     0.058 A 
ATOM      6  C   UNL     1      22.874 -35.106  18.721  1.00  0.00    -0.022 A 
ENDROOT
BRANCH   6   7
ATOM      7  C   UNL     1      22.684 -34.663  17.333  1.00  0.00     0.010 C 
ATOM      8  C   UNL     1      23.329 -33.640  16.752  1.00  0.00     0.025 C 
BRANCH   8   9
ATOM      9  C   UNL     1      23.058 -33.224  15.305  1.00  0.00     0.064 C 
ATOM     10  O   UNL     1      23.847 -33.679  14.431  1.00  0.00    -0.545 OA
ATOM     11  O   UNL     1      22.056 -32.465  15.173  1.00  0.00    -0.545 OA
ENDBRANCH   8   9
ENDBRANCH   6   7
BRANCH   3  12
ATOM     12  O   UNL     1      23.426 -36.207  22.702  1.00  0.00    -0.504 OA
ATOM     13  H   UNL     1      23.890 -37.061  22.691  1.00  0.00     0.293 HD
ENDBRANCH   3  12
BRANCH   4  14
ATOM     14  O   UNL     1      21.736 -37.620  21.127  1.00  0.00    -0.504 OA
ATOM     15  H   UNL     1      22.314 -38.380  20.925  1.00  0.00     0.293 HD
ENDBRANCH   4  14
TORSDOF 4
ENDMDL
MODEL 2
REMARK VINA RESULT:    -6.512      2.999      6.750
REMARK INTER + INTRA:          -7.802
REMARK INTER:                  -7.661
REMARK INTRA:                  -0.141
REMARK UNBOUND:                -0.148
REMARK SMILES O=C([O-])/C=C/c1ccc(O)c(O)c1
REMARK SMILES IDX 7 1 8 2 9 3 11 4 13 5 6 6 5 7 4 8 2 9 1 10 3 11 10 12 12 14
REMARK H PARENT 10 13 12 15
ROOT
ATOM      1  C   UNL     1      24.368 -32.736  14.899  1.00  0.00     0.012 A 
ATOM      2  C   UNL     1      25.143 -31.984  14.010  1.00  0.00     0.051 A 
ATOM      3  C   UNL     1      26.338 -32.517  13.544  1.00  0.00     0.157 A 
ATOM      4  C   UNL     1      26.757 -33.778  13.960  1.00  0.00     0.157 A 
ATOM      5  C   UNL     1      25.989 -34.530  14.842  1.00  0.00     0.058 A 
ATOM      6  C   UNL     1      24.774 -34.017  15.314  1.00  0.00    -0.022 A 
ENDROOT
BRANCH   6   7
ATOM      7  C   UNL     1      23.925 -34.739  16.271  1.00  0.00     0.010 C 
ATOM      8  C   UNL     1      23.507 -34.258  17.453  1.00  0.00     0.025 C 
BRANCH   8   9
ATOM      9  C   UNL     1      22.642 -35.084  18.407  1.00  0.00     0.064 C 
ATOM     10  O   UNL     1      22.962 -35.052  19.628  1.00  0.00    -0.545 OA
ATOM     11  O   UNL     1      21.698 -35.699  17.835  1.00  0.00    -0.545 OA
ENDBRANCH   8   9
ENDBRANCH   6   7
BRANCH   3  12
ATOM     12  O   UNL     1      27.141 -31.830  12.673  1.00  0.00    -0.504 OA
ATOM     13  H   UNL     1      27.997 -31.694  13.114  1.00  0.00     0.293 HD
ENDBRANCH   3  12
BRANCH   4  14
ATOM     14  O   UNL     1      27.942 -34.282  13.499  1.00  0.00    -0.504 OA
ATOM     15  H   UNL     1      28.002 -33.948  12.584  1.00  0.00     0.293 HD
ENDBRANCH   4  14
TORSDOF 4
ENDMDL
MODEL 3
REMARK VINA RESULT:    -6.473      1.443      1.984
REMARK INTER + INTRA:          -7.756
REMARK INTER:                  -7.609
REMARK INTRA:                  -0.147
REMARK UNBOUND:                -0.148
REMARK SMILES O=C([O-])/C=C/c1ccc(O)c(O)c1
REMARK SMILES IDX 7 1 8 2 9 3 11 4 13 5 6 6 5 7 4 8 2 9 1 10 3 11 10 12 12 14
REMARK H PARENT 10 13 12 15
ROOT
ATOM      1  C   UNL     1      22.929 -35.167  19.207  1.00  0.00     0.012 A 
ATOM      2  C   UNL     1      22.611 -35.995  20.288  1.00  0.00     0.051 A 
ATOM      3  C   UNL     1      22.772 -37.367  20.155  1.00  0.00     0.157 A 
ATOM      4  C   UNL     1      23.239 -37.909  18.959  1.00  0.00     0.157 A 
ATOM      5  C   UNL     1      23.558 -37.090  17.882  1.00  0.00     0.058 A 
ATOM      6  C   UNL     1      23.415 -35.701  18.000  1.00  0.00    -0.022 A 
ENDROOT
BRANCH   6   7
ATOM      7  C   UNL     1      23.702 -34.776  16.896  1.00  0.00     0.010 C 
ATOM      8  C   UNL     1      23.027 -33.644  16.639  1.00  0.00     0.025 C 
BRANCH   8   9
ATOM      9  C   UNL     1      23.373 -32.743  15.451  1.00  0.00     0.064 C 
ATOM     10  O   UNL     1      23.120 -31.513  15.585  1.00  0.00    -0.545 OA
ATOM     11  O   UNL     1      23.881 -33.362  14.474  1.00  0.00    -0.545 OA
ENDBRANCH   8   9
ENDBRANCH   6   7
BRANCH   3  12
ATOM     12  O   UNL     1      22.478 -38.230  21.176  1.00  0.00    -0.504 OA
ATOM     13  H   UNL     1      22.783 -39.113  20.907  1.00  0.00     0.293 HD
ENDBRANCH   3  12
BRANCH   4  14
ATOM     14  O   UNL     1      23.381 -39.264  18.842  1.00  0.00    -0.504 OA
ATOM     15  H   UNL     1      22.956 -39.618  19.646  1.00  0.00     0.293 HD
ENDBRANCH   4  14
TORSDOF 4
ENDMDL
MODEL 4
REMARK VINA RESULT:    -6.381      1.030      1.963
REMARK INTER + INTRA:          -7.648
REMARK INTER:                  -7.518
REMARK INTRA:                  -0.130
REMARK UNBOUND:                -0.148
REMARK SMILES O=C([O-])/C=C/c1ccc(O)c(O)c1
REMARK SMILES IDX 7 1 8 2 9 3 11 4 13 5 6 6 5 7 4 8 2 9 1 10 3 11 10 12 12 14
REMARK H PARENT 10 13 12 15
ROOT
ATOM      1  C   UNL     1      22.169 -35.859  18.626  1.00  0.00     0.012 A 
ATOM      2  C   UNL     1      22.087 -36.487  19.872  1.00  0.00     0.051 A 
ATOM      3  C   UNL     1      22.891 -36.033  20.909  1.00  0.00     0.157 A 
ATOM      4  C   UNL     1      23.768 -34.970  20.706  1.00  0.00     0.157 A 
ATOM      5  C   UNL     1      23.853 -34.342  19.468  1.00  0.00     0.058 A 
ATOM      6  C   UNL     1      23.040 -34.776  18.413  1.00  0.00    -0.022 A 
ENDROOT
BRANCH   6   7
ATOM      7  C   UNL     1      23.096 -34.181  17.071  1.00  0.00     0.010 C 
ATOM      8  C   UNL     1      24.096 -34.347  16.191  1.00  0.00     0.025 C 
BRANCH   8   9
ATOM      9  C   UNL     1      24.092 -33.673  14.817  1.00  0.00     0.064 C 
ATOM     10  O   UNL     1      25.182 -33.685  14.180  1.00  0.00    -0.545 OA
ATOM     11  O   UNL     1      22.972 -33.185  14.494  1.00  0.00    -0.545 OA
ENDBRANCH   8   9
ENDBRANCH   6   7
BRANCH   3  12
ATOM     12  O   UNL     1      22.857 -36.606  22.152  1.00  0.00    -0.504 OA
ATOM     13  H   UNL     1      21.994 -37.042  22.246  1.00  0.00     0.293 HD
ENDBRANCH   3  12
BRANCH   4  14
ATOM     14  O   UNL     1      24.561 -34.543  21.735  1.00  0.00    -0.504 OA
ATOM     15  H   UNL     1      24.016 -34.690  22.531  1.00  0.00     0.293 HD
ENDBRANCH   4  14
TORSDOF 4
ENDMDL
MODEL 5
REMARK VINA RESULT:    -6.305      2.807      4.227
REMARK INTER + INTRA:          -7.559
REMARK INTER:                  -7.414
REMARK INTRA:                  -0.145
REMARK UNBOUND:                -0.148
REMARK SMILES O=C([O-])/C=C/c1ccc(O)c(O)c1
REMARK SMILES IDX 7 1 8 2 9 3 11 4 13 5 6 6 5 7 4 8 2 9 1 10 3 11 10 12 12 14
REMARK H PARENT 10 13 12 15
ROOT
ATOM      1  C   UNL     1      23.362 -35.276  22.476  1.00  0.00     0.012 A 
ATOM      2  C   UNL     1      23.565 -34.921  23.814  1.00  0.00     0.051 A 
ATOM      3  C   UNL     1      24.245 -33.745  24.102  1.00  0.00     0.157 A 
ATOM      4  C   UNL     1      24.720 -32.935  23.073  1.00  0.00     0.157 A 
ATOM      5  C   UNL     1      24.520 -33.283  21.742  1.00  0.00     0.058 A 
ATOM      6  C   UNL     1      23.825 -34.459  21.429  1.00  0.00    -0.022 A 
ENDROOT
BRANCH   6   7
ATOM      7  C   UNL     1      23.602 -34.907  20.048  1.00  0.00     0.010 C 
ATOM      8  C   UNL     1      22.670 -35.792  19.661  1.00  0.00     0.025 C 
BRANCH   8   9
ATOM      9  C   UNL     1      22.515 -36.226  18.203  1.00  0.00     0.064 C 
ATOM     10  O   UNL     1      23.189 -37.231  17.840  1.00  0.00    -0.545 OA
ATOM     11  O   UNL     1      21.714 -35.508  17.540  1.00  0.00    -0.545 OA
ENDBRANCH   8   9
ENDBRANCH   6   7
BRANCH   3  12
ATOM     12  O   UNL     1      24.475 -33.343  25.391  1.00  0.00    -0.504 OA
ATOM     13  H   UNL     1      23.692 -33.586  25.914  1.00  0.00     0.293 HD
ENDBRANCH   3  12
BRANCH   4  14
ATOM     14  O   UNL     1      25.397 -31.786  23.376  1.00  0.00    -0.504 OA
ATOM     15  H   UNL     1      25.240 -31.209  22.605  1.00  0.00     0.293 HD
ENDBRANCH   4  14
TORSDOF 4
ENDMDL
MODEL 6
REMARK VINA RESULT:    -6.151      1.851      6.068
REMARK INTER + INTRA:          -7.378
REMARK INTER:                  -7.256
REMARK INTRA:                  -0.122
REMARK UNBOUND:                -0.148
REMARK SMILES O=C([O-])/C=C/c1ccc(O)c(O)c1
REMARK SMILES IDX 7 1 8 2 9 3 11 4 13 5 6 6 5 7 4 8 2 9 1 10 3 11 10 12 12 14
REMARK H PARENT 10 13 12 15
ROOT
ATOM      1  C   UNL     1      23.387 -33.265  16.076  1.00  0.00     0.012 A 
ATOM      2  C   UNL     1      24.048 -32.859  14.913  1.00  0.00     0.051 A 
ATOM      3  C   UNL     1      25.142 -33.592  14.471  1.00  0.00     0.157 A 
ATOM      4  C   UNL     1      25.574 -34.710  15.181  1.00  0.00     0.157 A 
ATOM      5  C   UNL     1      24.920 -35.117  16.338  1.00  0.00     0.058 A 
ATOM      6  C   UNL     1      23.806 -34.400  16.793  1.00  0.00    -0.022 A 
ENDROOT
BRANCH   6   7
ATOM      7  C   UNL     1      23.082 -34.751  18.023  1.00  0.00     0.010 C 
ATOM      8  C   UNL     1      23.555 -35.542  19.000  1.00  0.00     0.025 C 
BRANCH   8   9
ATOM      9  C   UNL     1      22.728 -35.882  20.242  1.00  0.00     0.064 C 
ATOM     10  O   UNL     1      23.148 -35.423  21.341  1.00  0.00    -0.545 OA
ATOM     11  O   UNL     1      21.710 -36.589  19.998  1.00  0.00    -0.545 OA
ENDBRANCH   8   9
ENDBRANCH   6   7
BRANCH   3  12
ATOM     12  O   UNL     1      25.831 -33.247  13.339  1.00  0.00    -0.504 OA
ATOM     13  H   UNL     1      26.134 -32.330  13.453  1.00  0.00     0.293 HD
ENDBRANCH   3  12
BRANCH   4  14
ATOM     14  O   UNL     1      26.660 -35.413  14.737  1.00  0.00    -0.504 OA
ATOM     15  H   UNL     1      26.350 -36.337  14.710  1.00  0.00     0.293 HD
ENDBRANCH   4  14
TORSDOF 4
ENDMDL
MODEL 7
REMARK VINA RESULT:    -6.124      1.433      5.916
REMARK INTER + INTRA:          -7.346
REMARK INTER:                  -7.225
REMARK INTRA:                  -0.121
REMARK UNBOUND:                -0.148
REMARK SMILES O=C([O-])/C=C/c1ccc(O)c(O)c1
REMARK SMILES IDX 7 1 8 2 9 3 11 4 13 5 6 6 5 7 4 8 2 9 1 10 3 11 10 12 12 14
REMARK H PARENT 10 13 12 15
ROOT
ATOM      1  C   UNL     1      24.802 -35.477  16.304  1.00  0.00     0.012 A 
ATOM      2  C   UNL     1      25.232 -34.600  15.303  1.00  0.00     0.051 A 
ATOM      3  C   UNL     1      24.537 -33.414  15.104  1.00  0.00     0.157 A 
ATOM      4  C   UNL     1      23.427 -33.108  15.887  1.00  0.00     0.157 A 
ATOM      5  C   UNL     1      22.996 -33.977  16.884  1.00  0.00     0.058 A 
ATOM      6  C   UNL     1      23.691 -35.172  17.110  1.00  0.00    -0.022 A 
ENDROOT
BRANCH   6   7
ATOM      7  C   UNL     1      23.278 -36.152  18.124  1.00  0.00     0.010 C 
ATOM      8  C   UNL     1      22.678 -35.855  19.288  1.00  0.00     0.025 C 
BRANCH   8   9
ATOM      9  C   UNL     1      22.300 -36.934  20.305  1.00  0.00     0.064 C 
ATOM     10  O   UNL     1      23.211 -37.742  20.635  1.00  0.00    -0.545 OA
ATOM     11  O   UNL     1      21.098 -36.869  20.692  1.00  0.00    -0.545 OA
ENDBRANCH   8   9
ENDBRANCH   6   7
BRANCH   3  12
ATOM     12  O   UNL     1      24.908 -32.515  14.140  1.00  0.00    -0.504 OA
ATOM     13  H   UNL     1      24.367 -32.694  13.353  1.00  0.00     0.293 HD
ENDBRANCH   3  12
BRANCH   4  14
ATOM     14  O   UNL     1      22.748 -31.941  15.670  1.00  0.00    -0.504 OA
ATOM     15  H   UNL     1      22.935 -31.728  14.736  1.00  0.00     0.293 HD
ENDBRANCH   4  14
TORSDOF 4
ENDMDL
MODEL 8
REMARK VINA RESULT:    -6.112      1.668      2.544
REMARK INTER + INTRA:          -7.332
REMARK INTER:                  -7.183
REMARK INTRA:                  -0.149
REMARK UNBOUND:                -0.148
REMARK SMILES O=C([O-])/C=C/c1ccc(O)c(O)c1
REMARK SMILES IDX 7 1 8 2 9 3 11 4 13 5 6 6 5 7 4 8 2 9 1 10 3 11 10 12 12 14
REMARK H PARENT 10 13 12 15
ROOT
ATOM      1  C   UNL     1      24.030 -36.329  17.065  1.00  0.00     0.012 A 
ATOM      2  C   UNL     1      24.045 -37.620  17.603  1.00  0.00     0.051 A 
ATOM      3  C   UNL     1      23.290 -37.884  18.738  1.00  0.00     0.157 A 
ATOM      4  C   UNL     1      22.536 -36.876  19.333  1.00  0.00     0.157 A 
ATOM      5  C   UNL     1      22.517 -35.591  18.802  1.00  0.00     0.058 A 
ATOM      6  C   UNL     1      23.260 -35.307  17.649  1.00  0.00    -0.022 A 
ENDROOT
BRANCH   6   7
ATOM      7  C   UNL     1      23.314 -33.967  17.048  1.00  0.00     0.010 C 
ATOM      8  C   UNL     1      23.791 -33.685  15.825  1.00  0.00     0.025 C 
BRANCH   8   9
ATOM      9  C   UNL     1      23.835 -32.257  15.279  1.00  0.00     0.064 C 
ATOM     10  O   UNL     1      22.925 -31.475  15.671  1.00  0.00    -0.545 OA
ATOM     11  O   UNL     1      24.800 -32.043  14.491  1.00  0.00    -0.545 OA
ENDBRANCH   8   9
ENDBRANCH   6   7
BRANCH   3  12
ATOM     12  O   UNL     1      23.263 -39.127  19.312  1.00  0.00    -0.504 OA
ATOM     13  H   UNL     1      24.182 -39.376  19.508  1.00  0.00     0.293 HD
ENDBRANCH   3  12
BRANCH   4  14
ATOM     14  O   UNL     1      21.808 -37.152  20.457  1.00  0.00    -0.504 OA
ATOM     15  H   UNL     1      21.403 -38.020  20.271  1.00  0.00     0.293 HD
ENDBRANCH   4  14
TORSDOF 4
ENDMDL
MODEL 9
REMARK VINA RESULT:    -5.868      4.478      5.941
REMARK INTER + INTRA:          -7.044
REMARK INTER:                  -6.892
REMARK INTRA:                  -0.152
REMARK UNBOUND:                -0.148
REMARK SMILES O=C([O-])/C=C/c1ccc(O)c(O)c1
REMARK SMILES IDX 7 1 8 2 9 3 11 4 13 5 6 6 5 7 4 8 2 9 1 10 3 11 10 12 12 14
REMARK H PARENT 10 13 12 15
ROOT
ATOM      1  C   UNL     1      24.785 -34.341  22.330  1.00  0.00     0.012 A 
ATOM      2  C   UNL     1      25.556 -33.220  22.654  1.00  0.00     0.051 A 
ATOM      3  C   UNL     1      25.244 -32.497  23.798  1.00  0.00     0.157 A 
ATOM      4  C   UNL     1      24.176 -32.881  24.605  1.00  0.00     0.157 A 
ATOM      5  C   UNL     1      23.406 -33.994  24.287  1.00  0.00     0.058 A 
ATOM      6  C   UNL     1      23.712 -34.746  23.145  1.00  0.00    -0.022 A 
ENDROOT
BRANCH   6   7
ATOM      7  C   UNL     1      22.927 -35.915  22.729  1.00  0.00     0.010 C 
ATOM      8  C   UNL     1      22.998 -36.509  21.527  1.00  0.00     0.025 C 
BRANCH   8   9
ATOM      9  C   UNL     1      22.127 -37.712  21.160  1.00  0.00     0.064 C 
ATOM     10  O   UNL     1      22.553 -38.455  20.233  1.00  0.00    -0.545 OA
ATOM     11  O   UNL     1      21.073 -37.806  21.852  1.00  0.00    -0.545 OA
ENDBRANCH   8   9
ENDBRANCH   6   7
BRANCH   3  12
ATOM     12  O   UNL     1      25.962 -31.391  24.169  1.00  0.00    -0.504 OA
ATOM     13  H   UNL     1      25.332 -30.657  24.269  1.00  0.00     0.293 HD
ENDBRANCH   3  12
BRANCH   4  14
ATOM     14  O   UNL     1      23.876 -32.150  25.721  1.00  0.00    -0.504 OA
ATOM     15  H   UNL     1      23.655 -31.265  25.373  1.00  0.00     0.293 HD
ENDBRANCH   4  14
TORSDOF 4
ENDMDL
