MODEL 1
REMARK VINA RESULT:    -6.581      0.000      0.000
REMARK INTER + INTRA:          -7.883
REMARK INTER:                  -7.735
REMARK INTRA:                  -0.148
REMARK UNBOUND:                -0.148
REMARK SMILES O=C([O-])/C=C/c1ccc(O)c(O)c1
REMARK SMILES IDX 7 1 8 2 9 3 11 4 13 5 6 6 5 7 4 8 2 9 1 10 3 11 10 12 12 14
REMARK H PARENT 10 13 12 15
ROOT
ATOM      1  C   UNL     1      23.716 -34.357  19.538  1.00  0.00     0.012 A 
ATOM      2  C   UNL     1      23.909 -34.709  20.878  1.00  0.00     0.051 A 
ATOM      3  C   UNL     1      23.215 -35.794  21.396  1.00  0.00     0.157 A 
ATOM      4  C   UNL     1      22.336 -36.516  20.592  1.00  0.00     0.157 A 
ATOM      5  C   UNL     1      22.141 -36.171  19.259  1.00  0.00     0.058 A 
ATOM      6  C   UNL     1      22.842 -35.088  18.714  1.00  0.00    -0.022 A 
ENDROOT
BRANCH   6   7
ATOM      7  C   UNL     1      22.665 -34.645  17.324  1.00  0.00     0.010 C 
ATOM      8  C   UNL     1      23.322 -33.626  16.746  1.00  0.00     0.025 C 
BRANCH   8   9
ATOM      9  C   UNL     1      23.064 -33.210  15.297  1.00  0.00     0.064 C 
ATOM     10  O   UNL     1      23.834 -33.700  14.424  1.00  0.00    -0.545 OA
ATOM     11  O   UNL     1      22.090 -32.416  15.161  1.00  0.00    -0.545 OA
ENDBRANCH   8   9
ENDBRANCH   6   7
BRANCH   3  12
ATOM     12  O   UNL     1      23.361 -36.189  22.699  1.00  0.00    -0.504 OA
ATOM     13  H   UNL     1      24.282 -36.476  22.813  1.00  0.00     0.293 HD
ENDBRANCH   3  12
BRANCH   4  14
ATOM     14  O   UNL     1      21.651 -37.575  21.121  1.00  0.00    -0.504 OA
ATOM     15  H   UNL     1      22.309 -38.025  21.685  1.00  0.00     0.293 HD
ENDBRANCH   4  14
TORSDOF 4
ENDMDL
MODEL 2
REMARK VINA RESULT:    -6.573      3.085      6.814
REMARK INTER + INTRA:          -7.874
REMARK INTER:                  -7.730
REMARK INTRA:                  -0.144
REMARK UNBOUND:                -0.148
REMARK SMILES O=C([O-])/C=C/c1ccc(O)c(O)c1
REMARK SMILES IDX 7 1 8 2 9 3 11 4 13 5 6 6 5 7 4 8 2 9 1 10 3 11 10 12 12 14
REMARK H PARENT 10 13 12 15
ROOT
ATOM      1  C   UNL     1      24.456 -32.806  14.843  1.00  0.00     0.012 A 
ATOM      2  C   UNL     1      25.195 -32.045  13.931  1.00  0.00     0.051 A 
ATOM      3  C   UNL     1      26.412 -32.535  13.477  1.00  0.00     0.157 A 
ATOM      4  C   UNL     1      26.890 -33.763  13.928  1.00  0.00     0.157 A 
ATOM      5  C   UNL     1      26.159 -34.524  14.833  1.00  0.00     0.058 A 
ATOM      6  C   UNL     1      24.922 -34.054  15.294  1.00  0.00    -0.022 A 
ENDROOT
BRANCH   6   7
ATOM      7  C   UNL     1      24.108 -34.787  16.274  1.00  0.00     0.010 C 
ATOM      8  C   UNL     1      23.449 -34.231  17.303  1.00  0.00     0.025 C 
BRANCH   8   9
ATOM      9  C   UNL     1      22.640 -35.067  18.297  1.00  0.00     0.064 C 
ATOM     10  O   UNL     1      21.717 -35.780  17.813  1.00  0.00    -0.545 OA
ATOM     11  O   UNL     1      23.013 -34.933  19.497  1.00  0.00    -0.545 OA
ENDBRANCH   8   9
ENDBRANCH   6   7
BRANCH   3  12
ATOM     12  O   UNL     1      27.182 -31.838  12.584  1.00  0.00    -0.504 OA
ATOM     13  H   UNL     1      28.108 -31.929  12.866  1.00  0.00     0.293 HD
ENDBRANCH   3  12
BRANCH   4  14
ATOM     14  O   UNL     1      28.096 -34.225  13.478  1.00  0.00    -0.504 OA
ATOM     15  H   UNL     1      27.919 -34.492  12.556  1.00  0.00     0.293 HD
ENDBRANCH   4  14
TORSDOF 4
ENDMDL
MODEL 3
REMARK VINA RESULT:    -6.529      1.494      1.872
REMARK INTER + INTRA:          -7.821
REMARK INTER:                  -7.678
REMARK INTRA:                  -0.143
REMARK UNBOUND:                -0.148
REMARK SMILES O=C([O-])/C=C/c1ccc(O)c(O)c1
REMARK SMILES IDX 7 1 8 2 9 3 11 4 13 5 6 6 5 7 4 8 2 9 1 10 3 11 10 12 12 14
REMARK H PARENT 10 13 12 15
ROOT
ATOM      1  C   UNL     1      22.901 -35.297  19.289  1.00  0.00     0.012 A 
ATOM      2  C   UNL     1      22.571 -36.155  20.342  1.00  0.00     0.051 A 
ATOM      3  C   UNL     1      22.721 -37.525  20.166  1.00  0.00     0.157 A 
ATOM      4  C   UNL     1      23.189 -38.032  18.956  1.00  0.00     0.157 A 
ATOM      5  C   UNL     1      23.519 -37.182  17.907  1.00  0.00     0.058 A 
ATOM      6  C   UNL     1      23.388 -35.797  18.068  1.00  0.00    -0.022 A 
ENDROOT
BRANCH   6   7
ATOM      7  C   UNL     1      23.688 -34.839  16.995  1.00  0.00     0.010 C 
ATOM      8  C   UNL     1      22.955 -33.754  16.698  1.00  0.00     0.025 C 
BRANCH   8   9
ATOM      9  C   UNL     1      23.322 -32.816  15.546  1.00  0.00     0.064 C 
ATOM     10  O   UNL     1      23.855 -33.349  14.533  1.00  0.00    -0.545 OA
ATOM     11  O   UNL     1      23.033 -31.605  15.765  1.00  0.00    -0.545 OA
ENDBRANCH   8   9
ENDBRANCH   6   7
BRANCH   3  12
ATOM     12  O   UNL     1      22.415 -38.417  21.159  1.00  0.00    -0.504 OA
ATOM     13  H   UNL     1      22.096 -37.905  21.921  1.00  0.00     0.293 HD
ENDBRANCH   3  12
BRANCH   4  14
ATOM     14  O   UNL     1      23.320 -39.384  18.797  1.00  0.00    -0.504 OA
ATOM     15  H   UNL     1      24.191 -39.586  19.189  1.00  0.00     0.293 HD
ENDBRANCH   4  14
TORSDOF 4
ENDMDL
MODEL 4
REMARK VINA RESULT:    -6.447      0.725      1.854
REMARK INTER + INTRA:          -7.725
REMARK INTER:                  -7.604
REMARK INTRA:                  -0.121
REMARK UNBOUND:                -0.148
REMARK SMILES O=C([O-])/C=C/c1ccc(O)c(O)c1
REMARK SMILES IDX 7 1 8 2 9 3 11 4 13 5 6 6 5 7 4 8 2 9 1 10 3 11 10 12 12 14
REMARK H PARENT 10 13 12 15
ROOT
ATOM      1  C   UNL     1      22.169 -36.171  19.195  1.00  0.00     0.012 A 
ATOM      2  C   UNL     1      22.276 -36.610  20.519  1.00  0.00     0.051 A 
ATOM      3  C   UNL     1      23.131 -35.939  21.383  1.00  0.00     0.157 A 
ATOM      4  C   UNL     1      23.872 -34.848  20.934  1.00  0.00     0.157 A 
ATOM      5  C   UNL     1      23.768 -34.408  19.619  1.00  0.00     0.058 A 
ATOM      6  C   UNL     1      22.901 -35.063  18.735  1.00  0.00    -0.022 A 
ENDROOT
BRANCH   6   7
ATOM      7  C   UNL     1      22.761 -34.674  17.325  1.00  0.00     0.010 C 
ATOM      8  C   UNL     1      23.252 -33.550  16.779  1.00  0.00     0.025 C 
BRANCH   8   9
ATOM      9  C   UNL     1      23.043 -33.203  15.304  1.00  0.00     0.064 C 
ATOM     10  O   UNL     1      23.860 -33.709  14.485  1.00  0.00    -0.545 OA
ATOM     11  O   UNL     1      22.056 -32.443  15.095  1.00  0.00    -0.545 OA
ENDBRANCH   8   9
ENDBRANCH   6   7
BRANCH   3  12
ATOM     12  O   UNL     1      23.280 -36.319  22.690  1.00  0.00    -0.504 OA
ATOM     13  H   UNL     1      24.170 -36.047  22.971  1.00  0.00     0.293 HD
ENDBRANCH   3  12
BRANCH   4  14
ATOM     14  O   UNL     1      24.717 -34.206  21.796  1.00  0.00    -0.504 OA
ATOM     15  H   UNL     1      25.230 -34.927  22.207  1.00  0.00     0.293 HD
ENDBRANCH   4  14
TORSDOF 4
ENDMDL
MODEL 5
REMARK VINA RESULT:    -6.332      2.771      4.202
REMARK INTER + INTRA:          -7.591
REMARK INTER:                  -7.445
REMARK INTRA:                  -0.146
REMARK UNBOUND:                -0.148
REMARK SMILES O=C([O-])/C=C/c1ccc(O)c(O)c1
REMARK SMILES IDX 7 1 8 2 9 3 11 4 13 5 6 6 5 7 4 8 2 9 1 10 3 11 10 12 12 14
REMARK H PARENT 10 13 12 15
ROOT
ATOM      1  C   UNL     1      23.331 -35.312  22.443  1.00  0.00     0.012 A 
ATOM      2  C   UNL     1      23.557 -34.978  23.782  1.00  0.00     0.051 A 
ATOM      3  C   UNL     1      24.245 -33.808  24.077  1.00  0.00     0.157 A 
ATOM      4  C   UNL     1      24.706 -32.985  23.052  1.00  0.00     0.157 A 
ATOM      5  C   UNL     1      24.483 -33.313  21.719  1.00  0.00     0.058 A 
ATOM      6  C   UNL     1      23.780 -34.481  21.400  1.00  0.00    -0.022 A 
ENDROOT
BRANCH   6   7
ATOM      7  C   UNL     1      23.532 -34.908  20.017  1.00  0.00     0.010 C 
ATOM      8  C   UNL     1      22.606 -35.802  19.636  1.00  0.00     0.025 C 
BRANCH   8   9
ATOM      9  C   UNL     1      22.426 -36.213  18.173  1.00  0.00     0.064 C 
ATOM     10  O   UNL     1      22.988 -37.286  17.816  1.00  0.00    -0.545 OA
ATOM     11  O   UNL     1      21.720 -35.409  17.501  1.00  0.00    -0.545 OA
ENDBRANCH   8   9
ENDBRANCH   6   7
BRANCH   3  12
ATOM     12  O   UNL     1      24.497 -33.426  25.367  1.00  0.00    -0.504 OA
ATOM     13  H   UNL     1      23.953 -33.985  25.947  1.00  0.00     0.293 HD
ENDBRANCH   3  12
BRANCH   4  14
ATOM     14  O   UNL     1      25.391 -31.842  23.360  1.00  0.00    -0.504 OA
ATOM     15  H   UNL     1      24.714 -31.141  23.320  1.00  0.00     0.293 HD
ENDBRANCH   4  14
TORSDOF 4
ENDMDL
MODEL 6
REMARK VINA RESULT:    -6.259      2.225      6.263
REMARK INTER + INTRA:          -7.504
REMARK INTER:                  -7.379
REMARK INTRA:                  -0.125
REMARK UNBOUND:                -0.148
REMARK SMILES O=C([O-])/C=C/c1ccc(O)c(O)c1
REMARK SMILES IDX 7 1 8 2 9 3 11 4 13 5 6 6 5 7 4 8 2 9 1 10 3 11 10 12 12 14
REMARK H PARENT 10 13 12 15
ROOT
ATOM      1  C   UNL     1      23.683 -33.376  15.573  1.00  0.00     0.012 A 
ATOM      2  C   UNL     1      24.401 -32.905  14.469  1.00  0.00     0.051 A 
ATOM      3  C   UNL     1      25.593 -33.528  14.126  1.00  0.00     0.157 A 
ATOM      4  C   UNL     1      26.068 -34.602  14.876  1.00  0.00     0.157 A 
ATOM      5  C   UNL     1      25.358 -35.074  15.974  1.00  0.00     0.058 A 
ATOM      6  C   UNL     1      24.145 -34.468  16.329  1.00  0.00    -0.022 A 
ENDROOT
BRANCH   6   7
ATOM      7  C   UNL     1      23.356 -34.892  17.493  1.00  0.00     0.010 C 
ATOM      8  C   UNL     1      23.822 -34.997  18.748  1.00  0.00     0.025 C 
BRANCH   8   9
ATOM      9  C   UNL     1      22.941 -35.470  19.906  1.00  0.00     0.064 C 
ATOM     10  O   UNL     1      23.277 -35.090  21.062  1.00  0.00    -0.545 OA
ATOM     11  O   UNL     1      21.969 -36.192  19.544  1.00  0.00    -0.545 OA
ENDBRANCH   8   9
ENDBRANCH   6   7
BRANCH   3  12
ATOM     12  O   UNL     1      26.341 -33.115  13.057  1.00  0.00    -0.504 OA
ATOM     13  H   UNL     1      27.214 -32.856  13.396  1.00  0.00     0.293 HD
ENDBRANCH   3  12
BRANCH   4  14
ATOM     14  O   UNL     1      27.250 -35.197  14.531  1.00  0.00    -0.504 OA
ATOM     15  H   UNL     1      27.413 -34.889  13.619  1.00  0.00     0.293 HD
ENDBRANCH   4  14
TORSDOF 4
ENDMDL
MODEL 7
REMARK VINA RESULT:    -6.101      1.398      5.958
REMARK INTER + INTRA:          -7.319
REMARK INTER:                  -7.197
REMARK INTRA:                  -0.122
REMARK UNBOUND:                -0.148
REMARK SMILES O=C([O-])/C=C/c1ccc(O)c(O)c1
REMARK SMILES IDX 7 1 8 2 9 3 11 4 13 5 6 6 5 7 4 8 2 9 1 10 3 11 10 12 12 14
REMARK H PARENT 10 13 12 15
ROOT
ATOM      1  C   UNL     1      24.793 -35.496  16.442  1.00  0.00     0.012 A 
ATOM      2  C   UNL     1      25.217 -34.626  15.432  1.00  0.00     0.051 A 
ATOM      3  C   UNL     1      24.470 -33.486  15.169  1.00  0.00     0.157 A 
ATOM      4  C   UNL     1      23.314 -33.218  15.898  1.00  0.00     0.157 A 
ATOM      5  C   UNL     1      22.888 -34.079  16.903  1.00  0.00     0.058 A 
ATOM      6  C   UNL     1      23.635 -35.228  17.193  1.00  0.00    -0.022 A 
ENDROOT
BRANCH   6   7
ATOM      7  C   UNL     1      23.232 -36.200  18.219  1.00  0.00     0.010 C 
ATOM      8  C   UNL     1      22.612 -35.897  19.371  1.00  0.00     0.025 C 
BRANCH   8   9
ATOM      9  C   UNL     1      22.246 -36.966  20.403  1.00  0.00     0.064 C 
ATOM     10  O   UNL     1      21.056 -36.958  20.824  1.00  0.00    -0.545 OA
ATOM     11  O   UNL     1      23.204 -37.734  20.701  1.00  0.00    -0.545 OA
ENDBRANCH   8   9
ENDBRANCH   6   7
BRANCH   3  12
ATOM     12  O   UNL     1      24.833 -32.595  14.194  1.00  0.00    -0.504 OA
ATOM     13  H   UNL     1      24.572 -31.710  14.499  1.00  0.00     0.293 HD
ENDBRANCH   3  12
BRANCH   4  14
ATOM     14  O   UNL     1      22.584 -32.095  15.618  1.00  0.00    -0.504 OA
ATOM     15  H   UNL     1      22.210 -32.270  14.734  1.00  0.00     0.293 HD
ENDBRANCH   4  14
TORSDOF 4
ENDMDL
MODEL 8
REMARK VINA RESULT:    -6.034      4.426      6.017
REMARK INTER + INTRA:          -7.239
REMARK INTER:                  -7.090
REMARK INTRA:                  -0.149
REMARK UNBOUND:                -0.148
REMARK SMILES O=C([O-])/C=C/c1ccc(O)c(O)c1
REMARK SMILES IDX 7 1 8 2 9 3 11 4 13 5 6 6 5 7 4 8 2 9 1 10 3 11 10 12 12 14
REMARK H PARENT 10 13 12 15
ROOT
ATOM      1  C   UNL     1      24.286 -33.927  22.040  1.00  0.00     0.012 A 
ATOM      2  C   UNL     1      25.031 -32.774  22.312  1.00  0.00     0.051 A 
ATOM      3  C   UNL     1      25.255 -32.415  23.634  1.00  0.00     0.157 A 
ATOM      4  C   UNL     1      24.741 -33.190  24.672  1.00  0.00     0.157 A 
ATOM      5  C   UNL     1      24.001 -34.337  24.406  1.00  0.00     0.058 A 
ATOM      6  C   UNL     1      23.775 -34.724  23.079  1.00  0.00    -0.022 A 
ENDROOT
BRANCH   6   7
ATOM      7  C   UNL     1      22.978 -35.905  22.720  1.00  0.00     0.010 C 
ATOM      8  C   UNL     1      22.902 -36.446  21.494  1.00  0.00     0.025 C 
BRANCH   8   9
ATOM      9  C   UNL     1      22.028 -37.665  21.194  1.00  0.00     0.064 C 
ATOM     10  O   UNL     1      20.952 -37.761  21.847  1.00  0.00    -0.545 OA
ATOM     11  O   UNL     1      22.508 -38.431  20.311  1.00  0.00    -0.545 OA
ENDBRANCH   8   9
ENDBRANCH   6   7
BRANCH   3  12
ATOM     12  O   UNL     1      25.976 -31.299  23.966  1.00  0.00    -0.504 OA
ATOM     13  H   UNL     1      25.708 -31.037  24.863  1.00  0.00     0.293 HD
ENDBRANCH   3  12
BRANCH   4  14
ATOM     14  O   UNL     1      24.962 -32.815  25.968  1.00  0.00    -0.504 OA
ATOM     15  H   UNL     1      24.644 -33.574  26.492  1.00  0.00     0.293 HD
ENDBRANCH   4  14
TORSDOF 4
ENDMDL
MODEL 9
REMARK VINA RESULT:    -5.711      2.787      5.389
REMARK INTER + INTRA:          -6.861
REMARK INTER:                  -6.740
REMARK INTRA:                  -0.121
REMARK UNBOUND:                -0.148
REMARK SMILES O=C([O-])/C=C/c1ccc(O)c(O)c1
REMARK SMILES IDX 7 1 8 2 9 3 11 4 13 5 6 6 5 7 4 8 2 9 1 10 3 11 10 12 12 14
REMARK H PARENT 10 13 12 15
ROOT
ATOM      1  C   UNL     1      23.694 -34.703  19.021  1.00  0.00     0.012 A 
ATOM      2  C   UNL     1      23.588 -35.548  17.911  1.00  0.00     0.051 A 
ATOM      3  C   UNL     1      23.332 -36.897  18.115  1.00  0.00     0.157 A 
ATOM      4  C   UNL     1      23.187 -37.400  19.406  1.00  0.00     0.157 A 
ATOM      5  C   UNL     1      23.290 -36.564  20.512  1.00  0.00     0.058 A 
ATOM      6  C   UNL     1      23.535 -35.197  20.328  1.00  0.00    -0.022 A 
ENDROOT
BRANCH   6   7
ATOM      7  C   UNL     1      23.687 -34.259  21.449  1.00  0.00     0.010 C 
ATOM      8  C   UNL     1      23.321 -34.502  22.717  1.00  0.00     0.025 C 
BRANCH   8   9
ATOM      9  C   UNL     1      23.490 -33.462  23.826  1.00  0.00     0.064 C 
ATOM     10  O   UNL     1      24.467 -33.626  24.608  1.00  0.00    -0.545 OA
ATOM     11  O   UNL     1      22.611 -32.554  23.810  1.00  0.00    -0.545 OA
ENDBRANCH   8   9
ENDBRANCH   6   7
BRANCH   3  12
ATOM     12  O   UNL     1      23.217 -37.775  17.070  1.00  0.00    -0.504 OA
ATOM     13  H   UNL     1      22.381 -37.577  16.616  1.00  0.00     0.293 HD
ENDBRANCH   3  12
BRANCH   4  14
ATOM     14  O   UNL     1      22.946 -38.733  19.588  1.00  0.00    -0.504 OA
ATOM     15  H   UNL     1      23.802 -39.158  19.392  1.00  0.00     0.293 HD
ENDBRANCH   4  14
TORSDOF 4
ENDMDL
