MODEL 1
REMARK VINA RESULT:    -5.422      0.000      0.000
REMARK INTER + INTRA:          -6.934
REMARK INTER:                  -6.532
REMARK INTRA:                  -0.402
REMARK UNBOUND:                -0.402
REMARK SMILES O=C1O[C@H]([C@@H](O)CO)C([O-])=C1O
REMARK SMILES IDX 5 1 7 2 8 3 4 5 9 6 3 7 11 8 2 9 1 10 10 11 12 12 6 14
REMARK H PARENT 8 4 12 13 6 15
ROOT
ATOM      1  C   UNL     1      23.477 -41.521  14.281  1.00  0.00     0.184 C 
ENDROOT
BRANCH   1   2
ATOM      2  C   UNL     1      23.266 -40.419  13.236  1.00  0.00     0.192 C 
BRANCH   2   3
ATOM      3  O   UNL     1      21.954 -39.860  13.413  1.00  0.00    -0.394 OA
ATOM      4  H   UNL     1      21.383 -40.452  12.880  1.00  0.00     0.210 HD
ENDBRANCH   2   3
ENDBRANCH   1   2
BRANCH   1   5
ATOM      5  C   UNL     1      24.047 -41.015  15.627  1.00  0.00     0.227 C 
ATOM      6  C   UNL     1      23.249 -39.927  16.297  1.00  0.00    -0.037 C 
ATOM      7  O   UNL     1      25.358 -40.454  15.433  1.00  0.00    -0.450 OA
ATOM      8  C   UNL     1      24.054 -38.881  16.479  1.00  0.00     0.193 C 
ATOM      9  C   UNL     1      25.391 -39.188  15.949  1.00  0.00     0.373 C 
ATOM     10  O   UNL     1      26.371 -38.461  15.945  1.00  0.00    -0.243 OA
ATOM     11  O   UNL     1      22.038 -40.156  16.562  1.00  0.00    -0.870 OA
BRANCH   8  12
ATOM     12  O   UNL     1      23.654 -37.710  17.067  1.00  0.00    -0.502 OA
ATOM     13  H   UNL     1      23.558 -37.140  16.272  1.00  0.00     0.293 HD
ENDBRANCH   8  12
ENDBRANCH   1   5
BRANCH   1  14
ATOM     14  O   UNL     1      22.214 -42.198  14.466  1.00  0.00    -0.387 OA
ATOM     15  H   UNL     1      21.623 -41.474  14.811  1.00  0.00     0.211 HD
ENDBRANCH   1  14
TORSDOF 5
ENDMDL
MODEL 2
REMARK VINA RESULT:    -5.228      2.179      5.103
REMARK INTER + INTRA:          -6.700
REMARK INTER:                  -6.362
REMARK INTRA:                  -0.339
REMARK UNBOUND:                -0.402
REMARK SMILES O=C1O[C@H]([C@@H](O)CO)C([O-])=C1O
REMARK SMILES IDX 5 1 7 2 8 3 4 5 9 6 3 7 11 8 2 9 1 10 10 11 12 12 6 14
REMARK H PARENT 8 4 12 13 6 15
ROOT
ATOM      1  C   UNL     1      23.433 -40.400  14.334  1.00  0.00     0.184 C 
ENDROOT
BRANCH   1   2
ATOM      2  C   UNL     1      23.410 -40.132  15.843  1.00  0.00     0.192 C 
BRANCH   2   3
ATOM      3  O   UNL     1      22.054 -40.230  16.308  1.00  0.00    -0.394 OA
ATOM      4  H   UNL     1      21.599 -40.697  15.577  1.00  0.00     0.210 HD
ENDBRANCH   2   3
ENDBRANCH   1   2
BRANCH   1   5
ATOM      5  C   UNL     1      23.389 -41.900  13.957  1.00  0.00     0.227 C 
ATOM      6  C   UNL     1      23.769 -42.218  12.534  1.00  0.00    -0.037 C 
ATOM      7  O   UNL     1      22.053 -42.413  14.112  1.00  0.00    -0.450 OA
ATOM      8  C   UNL     1      22.750 -42.869  11.973  1.00  0.00     0.193 C 
ATOM      9  C   UNL     1      21.659 -43.011  12.948  1.00  0.00     0.373 C 
ATOM     10  O   UNL     1      20.577 -43.550  12.775  1.00  0.00    -0.243 OA
ATOM     11  O   UNL     1      24.902 -41.848  12.125  1.00  0.00    -0.870 OA
BRANCH   8  12
ATOM     12  O   UNL     1      22.756 -43.314  10.678  1.00  0.00    -0.502 OA
ATOM     13  H   UNL     1      21.798 -43.490  10.550  1.00  0.00     0.293 HD
ENDBRANCH   8  12
ENDBRANCH   1   5
BRANCH   1  14
ATOM     14  O   UNL     1      22.330 -39.678  13.743  1.00  0.00    -0.387 OA
ATOM     15  H   UNL     1      22.604 -39.597  12.789  1.00  0.00     0.211 HD
ENDBRANCH   1  14
TORSDOF 5
ENDMDL
MODEL 3
REMARK VINA RESULT:    -5.125      1.820      3.446
REMARK INTER + INTRA:          -6.576
REMARK INTER:                  -5.966
REMARK INTRA:                  -0.610
REMARK UNBOUND:                -0.402
REMARK SMILES O=C1O[C@H]([C@@H](O)CO)C([O-])=C1O
REMARK SMILES IDX 5 1 7 2 8 3 4 5 9 6 3 7 11 8 2 9 1 10 10 11 12 12 6 14
REMARK H PARENT 8 4 12 13 6 15
ROOT
ATOM      1  C   UNL     1      22.927 -42.968  12.594  1.00  0.00     0.184 C 
ENDROOT
BRANCH   1   2
ATOM      2  C   UNL     1      21.404 -43.100  12.486  1.00  0.00     0.192 C 
BRANCH   2   3
ATOM      3  O   UNL     1      20.899 -43.640  13.719  1.00  0.00    -0.394 OA
ATOM      4  H   UNL     1      21.675 -43.599  14.317  1.00  0.00     0.210 HD
ENDBRANCH   2   3
ENDBRANCH   1   2
BRANCH   1   5
ATOM      5  C   UNL     1      23.406 -41.607  13.154  1.00  0.00     0.227 C 
ATOM      6  C   UNL     1      24.648 -41.662  14.006  1.00  0.00    -0.037 C 
ATOM      7  O   UNL     1      22.395 -41.034  14.002  1.00  0.00    -0.450 OA
ATOM      8  C   UNL     1      24.352 -41.141  15.196  1.00  0.00     0.193 C 
ATOM      9  C   UNL     1      22.941 -40.731  15.218  1.00  0.00     0.373 C 
ATOM     10  O   UNL     1      22.332 -40.222  16.146  1.00  0.00    -0.243 OA
ATOM     11  O   UNL     1      25.693 -42.153  13.500  1.00  0.00    -0.870 OA
BRANCH   8  12
ATOM     12  O   UNL     1      25.255 -41.031  16.220  1.00  0.00    -0.502 OA
ATOM     13  H   UNL     1      24.881 -40.260  16.700  1.00  0.00     0.293 HD
ENDBRANCH   8  12
ENDBRANCH   1   5
BRANCH   1  14
ATOM     14  O   UNL     1      23.407 -44.066  13.402  1.00  0.00    -0.387 OA
ATOM     15  H   UNL     1      23.059 -44.864  12.920  1.00  0.00     0.211 HD
ENDBRANCH   1  14
TORSDOF 5
ENDMDL
MODEL 4
REMARK VINA RESULT:    -5.096      2.363      4.108
REMARK INTER + INTRA:          -6.541
REMARK INTER:                  -6.095
REMARK INTRA:                  -0.446
REMARK UNBOUND:                -0.402
REMARK SMILES O=C1O[C@H]([C@@H](O)CO)C([O-])=C1O
REMARK SMILES IDX 5 1 7 2 8 3 4 5 9 6 3 7 11 8 2 9 1 10 10 11 12 12 6 14
REMARK H PARENT 8 4 12 13 6 15
ROOT
ATOM      1  C   UNL     1      25.527 -43.198  14.211  1.00  0.00     0.184 C 
ENDROOT
BRANCH   1   2
ATOM      2  C   UNL     1      26.073 -42.590  15.508  1.00  0.00     0.192 C 
BRANCH   2   3
ATOM      3  O   UNL     1      25.610 -43.378  16.617  1.00  0.00    -0.394 OA
ATOM      4  H   UNL     1      25.137 -42.724  17.175  1.00  0.00     0.210 HD
ENDBRANCH   2   3
ENDBRANCH   1   2
BRANCH   1   5
ATOM      5  C   UNL     1      24.145 -42.648  13.786  1.00  0.00     0.227 C 
ATOM      6  C   UNL     1      24.180 -41.417  12.918  1.00  0.00    -0.037 C 
ATOM      7  O   UNL     1      23.383 -42.267  14.947  1.00  0.00    -0.450 OA
ATOM      8  C   UNL     1      23.480 -40.463  13.530  1.00  0.00     0.193 C 
ATOM      9  C   UNL     1      22.962 -40.974  14.808  1.00  0.00     0.373 C 
ATOM     10  O   UNL     1      22.284 -40.372  15.625  1.00  0.00    -0.243 OA
ATOM     11  O   UNL     1      24.816 -41.475  11.831  1.00  0.00    -0.870 OA
BRANCH   8  12
ATOM     12  O   UNL     1      23.303 -39.206  13.018  1.00  0.00    -0.502 OA
ATOM     13  H   UNL     1      24.146 -39.097  12.526  1.00  0.00     0.293 HD
ENDBRANCH   8  12
ENDBRANCH   1   5
BRANCH   1  14
ATOM     14  O   UNL     1      26.516 -42.989  13.177  1.00  0.00    -0.387 OA
ATOM     15  H   UNL     1      26.860 -42.077  13.381  1.00  0.00     0.211 HD
ENDBRANCH   1  14
TORSDOF 5
ENDMDL
MODEL 5
REMARK VINA RESULT:    -5.022      1.662      3.863
REMARK INTER + INTRA:          -6.452
REMARK INTER:                  -5.818
REMARK INTRA:                  -0.634
REMARK UNBOUND:                -0.402
REMARK SMILES O=C1O[C@H]([C@@H](O)CO)C([O-])=C1O
REMARK SMILES IDX 5 1 7 2 8 3 4 5 9 6 3 7 11 8 2 9 1 10 10 11 12 12 6 14
REMARK H PARENT 8 4 12 13 6 15
ROOT
ATOM      1  C   UNL     1      24.160 -38.703  17.713  1.00  0.00     0.184 C 
ENDROOT
BRANCH   1   2
ATOM      2  C   UNL     1      25.506 -38.569  18.433  1.00  0.00     0.192 C 
BRANCH   2   3
ATOM      3  O   UNL     1      25.910 -39.866  18.901  1.00  0.00    -0.394 OA
ATOM      4  H   UNL     1      26.777 -39.693  19.324  1.00  0.00     0.210 HD
ENDBRANCH   2   3
ENDBRANCH   1   2
BRANCH   1   5
ATOM      5  C   UNL     1      24.272 -39.167  16.241  1.00  0.00     0.227 C 
ATOM      6  C   UNL     1      23.347 -40.289  15.847  1.00  0.00    -0.037 C 
ATOM      7  O   UNL     1      25.597 -39.661  15.975  1.00  0.00    -0.450 OA
ATOM      8  C   UNL     1      24.093 -41.291  15.382  1.00  0.00     0.193 C 
ATOM      9  C   UNL     1      25.514 -40.919  15.446  1.00  0.00     0.373 C 
ATOM     10  O   UNL     1      26.472 -41.595  15.106  1.00  0.00    -0.243 OA
ATOM     11  O   UNL     1      22.108 -40.121  16.006  1.00  0.00    -0.870 OA
BRANCH   8  12
ATOM     12  O   UNL     1      23.575 -42.475  14.931  1.00  0.00    -0.502 OA
ATOM     13  H   UNL     1      23.635 -43.015  15.750  1.00  0.00     0.293 HD
ENDBRANCH   8  12
ENDBRANCH   1   5
BRANCH   1  14
ATOM     14  O   UNL     1      23.336 -39.604  18.486  1.00  0.00    -0.387 OA
ATOM     15  H   UNL     1      23.271 -40.405  17.898  1.00  0.00     0.211 HD
ENDBRANCH   1  14
TORSDOF 5
ENDMDL
MODEL 6
REMARK VINA RESULT:    -5.006      2.109      3.261
REMARK INTER + INTRA:          -6.433
REMARK INTER:                  -5.796
REMARK INTRA:                  -0.637
REMARK UNBOUND:                -0.402
REMARK SMILES O=C1O[C@H]([C@@H](O)CO)C([O-])=C1O
REMARK SMILES IDX 5 1 7 2 8 3 4 5 9 6 3 7 11 8 2 9 1 10 10 11 12 12 6 14
REMARK H PARENT 8 4 12 13 6 15
ROOT
ATOM      1  C   UNL     1      23.038 -41.774  13.398  1.00  0.00     0.184 C 
ENDROOT
BRANCH   1   2
ATOM      2  C   UNL     1      22.742 -40.271  13.465  1.00  0.00     0.192 C 
BRANCH   2   3
ATOM      3  O   UNL     1      22.584 -39.893  14.842  1.00  0.00    -0.394 OA
ATOM      4  H   UNL     1      21.617 -39.965  14.986  1.00  0.00     0.210 HD
ENDBRANCH   2   3
ENDBRANCH   1   2
BRANCH   1   5
ATOM      5  C   UNL     1      24.515 -42.141  13.676  1.00  0.00     0.227 C 
ATOM      6  C   UNL     1      24.724 -43.326  14.584  1.00  0.00    -0.037 C 
ATOM      7  O   UNL     1      25.185 -41.047  14.329  1.00  0.00    -0.450 OA
ATOM      8  C   UNL     1      25.463 -42.926  15.617  1.00  0.00     0.193 C 
ATOM      9  C   UNL     1      25.772 -41.495  15.478  1.00  0.00     0.373 C 
ATOM     10  O   UNL     1      26.424 -40.801  16.242  1.00  0.00    -0.243 OA
ATOM     11  O   UNL     1      24.209 -44.427  14.250  1.00  0.00    -0.870 OA
BRANCH   8  12
ATOM     12  O   UNL     1      25.846 -43.752  16.640  1.00  0.00    -0.502 OA
ATOM     13  H   UNL     1      25.834 -43.119  17.390  1.00  0.00     0.293 HD
ENDBRANCH   8  12
ENDBRANCH   1   5
BRANCH   1  14
ATOM     14  O   UNL     1      22.148 -42.439  14.323  1.00  0.00    -0.387 OA
ATOM     15  H   UNL     1      22.013 -43.329  13.899  1.00  0.00     0.211 HD
ENDBRANCH   1  14
TORSDOF 5
ENDMDL
MODEL 7
REMARK VINA RESULT:    -4.795      3.806      5.302
REMARK INTER + INTRA:          -6.178
REMARK INTER:                  -5.559
REMARK INTRA:                  -0.619
REMARK UNBOUND:                -0.402
REMARK SMILES O=C1O[C@H]([C@@H](O)CO)C([O-])=C1O
REMARK SMILES IDX 5 1 7 2 8 3 4 5 9 6 3 7 11 8 2 9 1 10 10 11 12 12 6 14
REMARK H PARENT 8 4 12 13 6 15
ROOT
ATOM      1  C   UNL     1      25.519 -35.156  15.303  1.00  0.00     0.184 C 
ENDROOT
BRANCH   1   2
ATOM      2  C   UNL     1      24.954 -33.837  14.763  1.00  0.00     0.192 C 
BRANCH   2   3
ATOM      3  O   UNL     1      23.604 -34.059  14.325  1.00  0.00    -0.394 OA
ATOM      4  H   UNL     1      23.581 -35.023  14.146  1.00  0.00     0.210 HD
ENDBRANCH   2   3
ENDBRANCH   1   2
BRANCH   1   5
ATOM      5  C   UNL     1      25.127 -35.459  16.769  1.00  0.00     0.227 C 
ATOM      6  C   UNL     1      24.953 -36.919  17.100  1.00  0.00    -0.037 C 
ATOM      7  O   UNL     1      23.861 -34.850  17.081  1.00  0.00    -0.450 OA
ATOM      8  C   UNL     1      23.720 -37.087  17.577  1.00  0.00     0.193 C 
ATOM      9  C   UNL     1      23.013 -35.798  17.581  1.00  0.00     0.373 C 
ATOM     10  O   UNL     1      21.868 -35.583  17.948  1.00  0.00    -0.243 OA
ATOM     11  O   UNL     1      25.924 -37.695  16.893  1.00  0.00    -0.870 OA
BRANCH   8  12
ATOM     12  O   UNL     1      23.222 -38.297  17.981  1.00  0.00    -0.502 OA
ATOM     13  H   UNL     1      22.370 -38.307  17.494  1.00  0.00     0.293 HD
ENDBRANCH   8  12
ENDBRANCH   1   5
BRANCH   1  14
ATOM     14  O   UNL     1      25.092 -36.214  14.416  1.00  0.00    -0.387 OA
ATOM     15  H   UNL     1      24.329 -35.799  13.928  1.00  0.00     0.211 HD
ENDBRANCH   1  14
TORSDOF 5
ENDMDL
MODEL 8
REMARK VINA RESULT:    -4.782      4.145      6.502
REMARK INTER + INTRA:          -6.162
REMARK INTER:                  -5.529
REMARK INTRA:                  -0.633
REMARK UNBOUND:                -0.402
REMARK SMILES O=C1O[C@H]([C@@H](O)CO)C([O-])=C1O
REMARK SMILES IDX 5 1 7 2 8 3 4 5 9 6 3 7 11 8 2 9 1 10 10 11 12 12 6 14
REMARK H PARENT 8 4 12 13 6 15
ROOT
ATOM      1  C   UNL     1      23.323 -37.001  21.370  1.00  0.00     0.184 C 
ENDROOT
BRANCH   1   2
ATOM      2  C   UNL     1      23.279 -35.579  21.942  1.00  0.00     0.192 C 
BRANCH   2   3
ATOM      3  O   UNL     1      24.218 -34.764  21.222  1.00  0.00    -0.394 OA
ATOM      4  H   UNL     1      24.110 -33.880  21.633  1.00  0.00     0.210 HD
ENDBRANCH   2   3
ENDBRANCH   1   2
BRANCH   1   5
ATOM      5  C   UNL     1      22.550 -37.173  20.041  1.00  0.00     0.227 C 
ATOM      6  C   UNL     1      23.327 -37.819  18.923  1.00  0.00    -0.037 C 
ATOM      7  O   UNL     1      22.151 -35.889  19.527  1.00  0.00    -0.450 OA
ATOM      8  C   UNL     1      23.327 -36.982  17.887  1.00  0.00     0.193 C 
ATOM      9  C   UNL     1      22.588 -35.760  18.239  1.00  0.00     0.373 C 
ATOM     10  O   UNL     1      22.394 -34.784  17.533  1.00  0.00    -0.243 OA
ATOM     11  O   UNL     1      23.817 -38.963  19.125  1.00  0.00    -0.870 OA
BRANCH   8  12
ATOM     12  O   UNL     1      23.944 -37.252  16.694  1.00  0.00    -0.502 OA
ATOM     13  H   UNL     1      23.541 -38.123  16.483  1.00  0.00     0.293 HD
ENDBRANCH   8  12
ENDBRANCH   1   5
BRANCH   1  14
ATOM     14  O   UNL     1      24.712 -37.372  21.222  1.00  0.00    -0.387 OA
ATOM     15  H   UNL     1      24.668 -38.364  21.141  1.00  0.00     0.211 HD
ENDBRANCH   1  14
TORSDOF 5
ENDMDL
MODEL 9
REMARK VINA RESULT:    -4.727      3.920      5.379
REMARK INTER + INTRA:          -6.097
REMARK INTER:                  -5.495
REMARK INTRA:                  -0.602
REMARK UNBOUND:                -0.402
REMARK SMILES O=C1O[C@H]([C@@H](O)CO)C([O-])=C1O
REMARK SMILES IDX 5 1 7 2 8 3 4 5 9 6 3 7 11 8 2 9 1 10 10 11 12 12 6 14
REMARK H PARENT 8 4 12 13 6 15
ROOT
ATOM      1  C   UNL     1      23.102 -35.999  18.388  1.00  0.00     0.184 C 
ENDROOT
BRANCH   1   2
ATOM      2  C   UNL     1      23.426 -37.497  18.402  1.00  0.00     0.192 C 
BRANCH   2   3
ATOM      3  O   UNL     1      23.186 -38.034  17.091  1.00  0.00    -0.394 OA
ATOM      4  H   UNL     1      22.952 -38.969  17.270  1.00  0.00     0.210 HD
ENDBRANCH   2   3
ENDBRANCH   1   2
BRANCH   1   5
ATOM      5  C   UNL     1      24.162 -35.129  17.672  1.00  0.00     0.227 C 
ATOM      6  C   UNL     1      23.664 -34.362  16.474  1.00  0.00    -0.037 C 
ATOM      7  O   UNL     1      25.228 -35.956  17.171  1.00  0.00    -0.450 OA
ATOM      8  C   UNL     1      24.406 -34.713  15.424  1.00  0.00     0.193 C 
ATOM      9  C   UNL     1      25.404 -35.712  15.837  1.00  0.00     0.373 C 
ATOM     10  O   UNL     1      26.243 -36.254  15.136  1.00  0.00    -0.243 OA
ATOM     11  O   UNL     1      22.698 -33.569  16.637  1.00  0.00    -0.870 OA
BRANCH   8  12
ATOM     12  O   UNL     1      24.228 -34.205  14.166  1.00  0.00    -0.502 OA
ATOM     13  H   UNL     1      23.251 -34.104  14.155  1.00  0.00     0.293 HD
ENDBRANCH   8  12
ENDBRANCH   1   5
BRANCH   1  14
ATOM     14  O   UNL     1      21.797 -35.838  17.787  1.00  0.00    -0.387 OA
ATOM     15  H   UNL     1      21.186 -35.870  18.572  1.00  0.00     0.211 HD
ENDBRANCH   1  14
TORSDOF 5
ENDMDL
