MODEL 1
REMARK VINA RESULT:    -6.428      0.000      0.000
REMARK INTER + INTRA:          -8.316
REMARK INTER:                  -8.119
REMARK INTRA:                  -0.197
REMARK UNBOUND:                -0.197
REMARK SMILES O=C([O-])[C@H](O)Cc1ccc(O)c(O)c1
REMARK SMILES IDX 6 1 7 2 8 3 9 4 10 5 14 6 12 7 11 8 13 10 4 12 2 13 1 14
REMARK SMILES IDX 3 15 5 16
REMARK H PARENT 11 9 13 11 5 17
ROOT
ATOM      1  C   UNL     1      22.565 -34.789  17.394  1.00  0.00     0.073 C 
ENDROOT
BRANCH   1   2
ATOM      2  C   UNL     1      22.843 -35.128  18.845  1.00  0.00    -0.041 A 
ATOM      3  C   UNL     1      23.727 -34.348  19.611  1.00  0.00     0.008 A 
ATOM      4  C   UNL     1      23.974 -34.663  20.950  1.00  0.00     0.050 A 
ATOM      5  C   UNL     1      23.328 -35.747  21.522  1.00  0.00     0.157 A 
ATOM      6  C   UNL     1      22.199 -36.221  19.442  1.00  0.00     0.054 A 
ATOM      7  C   UNL     1      22.440 -36.519  20.777  1.00  0.00     0.157 A 
BRANCH   5   8
ATOM      8  O   UNL     1      23.558 -36.058  22.833  1.00  0.00    -0.504 OA
ATOM      9  H   UNL     1      23.826 -35.203  23.225  1.00  0.00     0.293 HD
ENDBRANCH   5   8
BRANCH   7  10
ATOM     10  O   UNL     1      21.811 -37.565  21.397  1.00  0.00    -0.504 OA
ATOM     11  H   UNL     1      22.432 -37.889  22.077  1.00  0.00     0.293 HD
ENDBRANCH   7  10
ENDBRANCH   1   2
BRANCH   1  12
ATOM     12  C   UNL     1      23.823 -34.384  16.625  1.00  0.00     0.164 C 
BRANCH  12  13
ATOM     13  C   UNL     1      23.504 -33.301  15.547  1.00  0.00     0.070 C 
ATOM     14  O   UNL     1      23.831 -33.660  14.371  1.00  0.00    -0.547 OA
ATOM     15  O   UNL     1      22.985 -32.225  15.949  1.00  0.00    -0.547 OA
ENDBRANCH  12  13
BRANCH  12  16
ATOM     16  O   UNL     1      24.369 -35.560  15.960  1.00  0.00    -0.387 OA
ATOM     17  H   UNL     1      24.862 -35.993  16.703  1.00  0.00     0.211 HD
ENDBRANCH  12  16
ENDBRANCH   1  12
TORSDOF 6
ENDMDL
MODEL 2
REMARK VINA RESULT:    -6.341      0.749      1.818
REMARK INTER + INTRA:          -8.206
REMARK INTER:                  -8.000
REMARK INTRA:                  -0.207
REMARK UNBOUND:                -0.197
REMARK SMILES O=C([O-])[C@H](O)Cc1ccc(O)c(O)c1
REMARK SMILES IDX 6 1 7 2 8 3 9 4 10 5 14 6 12 7 11 8 13 10 4 12 2 13 1 14
REMARK SMILES IDX 3 15 5 16
REMARK H PARENT 11 9 13 11 5 17
ROOT
ATOM      1  C   UNL     1      22.548 -34.793  17.422  1.00  0.00     0.073 C 
ENDROOT
BRANCH   1   2
ATOM      2  C   UNL     1      22.834 -35.128  18.872  1.00  0.00    -0.041 A 
ATOM      3  C   UNL     1      22.193 -36.209  19.501  1.00  0.00     0.008 A 
ATOM      4  C   UNL     1      22.466 -36.517  20.837  1.00  0.00     0.050 A 
ATOM      5  C   UNL     1      23.386 -35.750  21.535  1.00  0.00     0.157 A 
ATOM      6  C   UNL     1      23.762 -34.365  19.595  1.00  0.00     0.054 A 
ATOM      7  C   UNL     1      24.036 -34.685  20.918  1.00  0.00     0.157 A 
BRANCH   5   8
ATOM      8  O   UNL     1      23.664 -36.048  22.840  1.00  0.00    -0.504 OA
ATOM      9  H   UNL     1      23.264 -36.933  22.960  1.00  0.00     0.293 HD
ENDBRANCH   5   8
BRANCH   7  10
ATOM     10  O   UNL     1      24.954 -33.975  21.647  1.00  0.00    -0.504 OA
ATOM     11  H   UNL     1      25.676 -33.754  21.029  1.00  0.00     0.293 HD
ENDBRANCH   7  10
ENDBRANCH   1   2
BRANCH   1  12
ATOM     12  C   UNL     1      23.799 -34.375  16.648  1.00  0.00     0.164 C 
BRANCH  12  13
ATOM     13  C   UNL     1      23.462 -33.309  15.560  1.00  0.00     0.070 C 
ATOM     14  O   UNL     1      23.758 -33.690  14.383  1.00  0.00    -0.547 OA
ATOM     15  O   UNL     1      22.960 -32.222  15.955  1.00  0.00    -0.547 OA
ENDBRANCH  12  13
BRANCH  12  16
ATOM     16  O   UNL     1      24.364 -35.549  15.995  1.00  0.00    -0.387 OA
ATOM     17  H   UNL     1      25.270 -35.223  15.758  1.00  0.00     0.211 HD
ENDBRANCH  12  16
ENDBRANCH   1  12
TORSDOF 6
ENDMDL
MODEL 3
REMARK VINA RESULT:    -6.241      2.350      6.061
REMARK INTER + INTRA:          -8.080
REMARK INTER:                  -7.840
REMARK INTRA:                  -0.240
REMARK UNBOUND:                -0.197
REMARK SMILES O=C([O-])[C@H](O)Cc1ccc(O)c(O)c1
REMARK SMILES IDX 6 1 7 2 8 3 9 4 10 5 14 6 12 7 11 8 13 10 4 12 2 13 1 14
REMARK SMILES IDX 3 15 5 16
REMARK H PARENT 11 9 13 11 5 17
ROOT
ATOM      1  C   UNL     1      22.867 -34.305  17.288  1.00  0.00     0.073 C 
ENDROOT
BRANCH   1   2
ATOM      2  C   UNL     1      23.824 -33.984  16.157  1.00  0.00    -0.041 A 
ATOM      3  C   UNL     1      23.688 -32.800  15.412  1.00  0.00     0.008 A 
ATOM      4  C   UNL     1      24.577 -32.507  14.374  1.00  0.00     0.050 A 
ATOM      5  C   UNL     1      25.606 -33.392  14.094  1.00  0.00     0.157 A 
ATOM      6  C   UNL     1      24.873 -34.866  15.858  1.00  0.00     0.054 A 
ATOM      7  C   UNL     1      25.759 -34.561  14.834  1.00  0.00     0.157 A 
BRANCH   5   8
ATOM      8  O   UNL     1      26.485 -33.110  13.085  1.00  0.00    -0.504 OA
ATOM      9  H   UNL     1      26.244 -32.199  12.823  1.00  0.00     0.293 HD
ENDBRANCH   5   8
BRANCH   7  10
ATOM     10  O   UNL     1      26.807 -35.389  14.530  1.00  0.00    -0.504 OA
ATOM     11  H   UNL     1      26.434 -36.110  13.990  1.00  0.00     0.293 HD
ENDBRANCH   7  10
ENDBRANCH   1   2
BRANCH   1  12
ATOM     12  C   UNL     1      23.503 -35.162  18.383  1.00  0.00     0.164 C 
BRANCH  12  13
ATOM     13  C   UNL     1      22.667 -36.451  18.651  1.00  0.00     0.070 C 
ATOM     14  O   UNL     1      22.003 -36.397  19.735  1.00  0.00    -0.547 OA
ATOM     15  O   UNL     1      22.747 -37.376  17.798  1.00  0.00    -0.547 OA
ENDBRANCH  12  13
BRANCH  12  16
ATOM     16  O   UNL     1      23.571 -34.383  19.613  1.00  0.00    -0.387 OA
ATOM     17  H   UNL     1      24.466 -33.966  19.532  1.00  0.00     0.211 HD
ENDBRANCH  12  16
ENDBRANCH   1  12
TORSDOF 6
ENDMDL
MODEL 4
REMARK VINA RESULT:    -6.230      1.370      1.506
REMARK INTER + INTRA:          -8.067
REMARK INTER:                  -7.858
REMARK INTRA:                  -0.208
REMARK UNBOUND:                -0.197
REMARK SMILES O=C([O-])[C@H](O)Cc1ccc(O)c(O)c1
REMARK SMILES IDX 6 1 7 2 8 3 9 4 10 5 14 6 12 7 11 8 13 10 4 12 2 13 1 14
REMARK SMILES IDX 3 15 5 16
REMARK H PARENT 11 9 13 11 5 17
ROOT
ATOM      1  C   UNL     1      22.832 -34.190  16.644  1.00  0.00     0.073 C 
ENDROOT
BRANCH   1   2
ATOM      2  C   UNL     1      23.214 -35.046  17.835  1.00  0.00    -0.041 A 
ATOM      3  C   UNL     1      24.562 -35.221  18.194  1.00  0.00     0.008 A 
ATOM      4  C   UNL     1      24.907 -36.006  19.297  1.00  0.00     0.050 A 
ATOM      5  C   UNL     1      23.904 -36.604  20.045  1.00  0.00     0.157 A 
ATOM      6  C   UNL     1      22.214 -35.658  18.605  1.00  0.00     0.054 A 
ATOM      7  C   UNL     1      22.566 -36.427  19.707  1.00  0.00     0.157 A 
BRANCH   5   8
ATOM      8  O   UNL     1      24.233 -37.368  21.130  1.00  0.00    -0.504 OA
ATOM      9  H   UNL     1      24.179 -38.282  20.787  1.00  0.00     0.293 HD
ENDBRANCH   5   8
BRANCH   7  10
ATOM     10  O   UNL     1      21.614 -37.020  20.493  1.00  0.00    -0.504 OA
ATOM     11  H   UNL     1      21.478 -36.422  21.251  1.00  0.00     0.293 HD
ENDBRANCH   7  10
ENDBRANCH   1   2
BRANCH   1  12
ATOM     12  C   UNL     1      24.028 -33.818  15.769  1.00  0.00     0.164 C 
BRANCH  12  13
ATOM     13  C   UNL     1      23.931 -32.341  15.275  1.00  0.00     0.070 C 
ATOM     14  O   UNL     1      24.860 -32.026  14.464  1.00  0.00    -0.547 OA
ATOM     15  O   UNL     1      22.982 -31.644  15.726  1.00  0.00    -0.547 OA
ENDBRANCH  12  13
BRANCH  12  16
ATOM     16  O   UNL     1      24.057 -34.699  14.609  1.00  0.00    -0.387 OA
ATOM     17  H   UNL     1      24.272 -34.060  13.883  1.00  0.00     0.211 HD
ENDBRANCH  12  16
ENDBRANCH   1  12
TORSDOF 6
ENDMDL
MODEL 5
REMARK VINA RESULT:    -6.200      1.683      2.254
REMARK INTER + INTRA:          -8.028
REMARK INTER:                  -7.816
REMARK INTRA:                  -0.211
REMARK UNBOUND:                -0.197
REMARK SMILES O=C([O-])[C@H](O)Cc1ccc(O)c(O)c1
REMARK SMILES IDX 6 1 7 2 8 3 9 4 10 5 14 6 12 7 11 8 13 10 4 12 2 13 1 14
REMARK SMILES IDX 3 15 5 16
REMARK H PARENT 11 9 13 11 5 17
ROOT
ATOM      1  C   UNL     1      22.807 -34.132  16.671  1.00  0.00     0.073 C 
ENDROOT
BRANCH   1   2
ATOM      2  C   UNL     1      23.156 -34.998  17.865  1.00  0.00    -0.041 A 
ATOM      3  C   UNL     1      22.161 -35.721  18.546  1.00  0.00     0.008 A 
ATOM      4  C   UNL     1      22.489 -36.523  19.643  1.00  0.00     0.050 A 
ATOM      5  C   UNL     1      23.812 -36.609  20.047  1.00  0.00     0.157 A 
ATOM      6  C   UNL     1      24.488 -35.099  18.290  1.00  0.00     0.054 A 
ATOM      7  C   UNL     1      24.808 -35.908  19.372  1.00  0.00     0.157 A 
BRANCH   5   8
ATOM      8  O   UNL     1      24.144 -37.396  21.114  1.00  0.00    -0.504 OA
ATOM      9  H   UNL     1      24.227 -38.288  20.720  1.00  0.00     0.293 HD
ENDBRANCH   5   8
BRANCH   7  10
ATOM     10  O   UNL     1      26.102 -36.047  19.799  1.00  0.00    -0.504 OA
ATOM     11  H   UNL     1      26.130 -35.676  20.701  1.00  0.00     0.293 HD
ENDBRANCH   7  10
ENDBRANCH   1   2
BRANCH   1  12
ATOM     12  C   UNL     1      24.020 -33.798  15.802  1.00  0.00     0.164 C 
BRANCH  12  13
ATOM     13  C   UNL     1      23.949 -32.333  15.270  1.00  0.00     0.070 C 
ATOM     14  O   UNL     1      24.882 -32.057  14.450  1.00  0.00    -0.547 OA
ATOM     15  O   UNL     1      23.015 -31.607  15.706  1.00  0.00    -0.547 OA
ENDBRANCH  12  13
BRANCH  12  16
ATOM     16  O   UNL     1      24.050 -34.708  14.665  1.00  0.00    -0.387 OA
ATOM     17  H   UNL     1      23.344 -34.322  14.086  1.00  0.00     0.211 HD
ENDBRANCH  12  16
ENDBRANCH   1  12
TORSDOF 6
ENDMDL
MODEL 6
REMARK VINA RESULT:    -6.094      2.626      4.154
REMARK INTER + INTRA:          -7.894
REMARK INTER:                  -7.680
REMARK INTRA:                  -0.214
REMARK UNBOUND:                -0.197
REMARK SMILES O=C([O-])[C@H](O)Cc1ccc(O)c(O)c1
REMARK SMILES IDX 6 1 7 2 8 3 9 4 10 5 14 6 12 7 11 8 13 10 4 12 2 13 1 14
REMARK SMILES IDX 3 15 5 16
REMARK H PARENT 11 9 13 11 5 17
ROOT
ATOM      1  C   UNL     1      23.706 -35.136  19.415  1.00  0.00     0.073 C 
ENDROOT
BRANCH   1   2
ATOM      2  C   UNL     1      23.773 -34.785  20.888  1.00  0.00    -0.041 A 
ATOM      3  C   UNL     1      23.287 -35.674  21.863  1.00  0.00     0.008 A 
ATOM      4  C   UNL     1      23.357 -35.347  23.220  1.00  0.00     0.050 A 
ATOM      5  C   UNL     1      23.923 -34.140  23.598  1.00  0.00     0.157 A 
ATOM      6  C   UNL     1      24.343 -33.569  21.291  1.00  0.00     0.054 A 
ATOM      7  C   UNL     1      24.420 -33.258  22.642  1.00  0.00     0.157 A 
BRANCH   5   8
ATOM      8  O   UNL     1      24.003 -33.815  24.924  1.00  0.00    -0.504 OA
ATOM      9  H   UNL     1      24.773 -33.214  24.964  1.00  0.00     0.293 HD
ENDBRANCH   5   8
BRANCH   7  10
ATOM     10  O   UNL     1      24.990 -32.089  23.072  1.00  0.00    -0.504 OA
ATOM     11  H   UNL     1      25.935 -32.285  23.211  1.00  0.00     0.293 HD
ENDBRANCH   7  10
ENDBRANCH   1   2
BRANCH   1  12
ATOM     12  C   UNL     1      22.569 -36.102  19.082  1.00  0.00     0.164 C 
BRANCH  12  13
ATOM     13  C   UNL     1      23.119 -37.506  18.679  1.00  0.00     0.070 C 
ATOM     14  O   UNL     1      23.310 -37.623  17.426  1.00  0.00    -0.547 OA
ATOM     15  O   UNL     1      23.297 -38.343  19.605  1.00  0.00    -0.547 OA
ENDBRANCH  12  13
BRANCH  12  16
ATOM     16  O   UNL     1      21.801 -35.562  17.969  1.00  0.00    -0.387 OA
ATOM     17  H   UNL     1      22.516 -35.156  17.416  1.00  0.00     0.211 HD
ENDBRANCH  12  16
ENDBRANCH   1  12
TORSDOF 6
ENDMDL
MODEL 7
REMARK VINA RESULT:    -6.078      2.311      3.520
REMARK INTER + INTRA:          -7.874
REMARK INTER:                  -7.666
REMARK INTRA:                  -0.208
REMARK UNBOUND:                -0.197
REMARK SMILES O=C([O-])[C@H](O)Cc1ccc(O)c(O)c1
REMARK SMILES IDX 6 1 7 2 8 3 9 4 10 5 14 6 12 7 11 8 13 10 4 12 2 13 1 14
REMARK SMILES IDX 3 15 5 16
REMARK H PARENT 11 9 13 11 5 17
ROOT
ATOM      1  C   UNL     1      23.369 -35.759  20.005  1.00  0.00     0.073 C 
ENDROOT
BRANCH   1   2
ATOM      2  C   UNL     1      23.583 -35.147  21.375  1.00  0.00    -0.041 A 
ATOM      3  C   UNL     1      23.202 -35.836  22.540  1.00  0.00     0.008 A 
ATOM      4  C   UNL     1      23.408 -35.268  23.800  1.00  0.00     0.050 A 
ATOM      5  C   UNL     1      24.005 -34.020  23.892  1.00  0.00     0.157 A 
ATOM      6  C   UNL     1      24.186 -33.886  21.490  1.00  0.00     0.054 A 
ATOM      7  C   UNL     1      24.398 -33.335  22.747  1.00  0.00     0.157 A 
BRANCH   5   8
ATOM      8  O   UNL     1      24.217 -33.461  25.122  1.00  0.00    -0.504 OA
ATOM      9  H   UNL     1      24.671 -32.620  24.912  1.00  0.00     0.293 HD
ENDBRANCH   5   8
BRANCH   7  10
ATOM     10  O   UNL     1      25.003 -32.115  22.896  1.00  0.00    -0.504 OA
ATOM     11  H   UNL     1      24.702 -31.571  22.145  1.00  0.00     0.293 HD
ENDBRANCH   7  10
ENDBRANCH   1   2
BRANCH   1  12
ATOM     12  C   UNL     1      23.761 -34.821  18.864  1.00  0.00     0.164 C 
BRANCH  12  13
ATOM     13  C   UNL     1      22.685 -34.821  17.735  1.00  0.00     0.070 C 
ATOM     14  O   UNL     1      22.863 -33.898  16.878  1.00  0.00    -0.547 OA
ATOM     15  O   UNL     1      21.782 -35.699  17.800  1.00  0.00    -0.547 OA
ENDBRANCH  12  13
BRANCH  12  16
ATOM     16  O   UNL     1      25.030 -35.266  18.302  1.00  0.00    -0.387 OA
ATOM     17  H   UNL     1      25.440 -34.404  18.035  1.00  0.00     0.211 HD
ENDBRANCH  12  16
ENDBRANCH   1  12
TORSDOF 6
ENDMDL
MODEL 8
REMARK VINA RESULT:    -5.944      3.913      5.361
REMARK INTER + INTRA:          -7.705
REMARK INTER:                  -7.473
REMARK INTRA:                  -0.232
REMARK UNBOUND:                -0.197
REMARK SMILES O=C([O-])[C@H](O)Cc1ccc(O)c(O)c1
REMARK SMILES IDX 6 1 7 2 8 3 9 4 10 5 14 6 12 7 11 8 13 10 4 12 2 13 1 14
REMARK SMILES IDX 3 15 5 16
REMARK H PARENT 11 9 13 11 5 17
ROOT
ATOM      1  C   UNL     1      24.052 -36.887  21.596  1.00  0.00     0.073 C 
ENDROOT
BRANCH   1   2
ATOM      2  C   UNL     1      23.819 -35.538  22.248  1.00  0.00    -0.041 A 
ATOM      3  C   UNL     1      23.227 -35.445  23.520  1.00  0.00     0.008 A 
ATOM      4  C   UNL     1      23.020 -34.199  24.118  1.00  0.00     0.050 A 
ATOM      5  C   UNL     1      23.417 -33.052  23.448  1.00  0.00     0.157 A 
ATOM      6  C   UNL     1      24.213 -34.365  21.587  1.00  0.00     0.054 A 
ATOM      7  C   UNL     1      24.015 -33.132  22.194  1.00  0.00     0.157 A 
BRANCH   5   8
ATOM      8  O   UNL     1      23.225 -31.829  24.029  1.00  0.00    -0.504 OA
ATOM      9  H   UNL     1      23.707 -31.219  23.436  1.00  0.00     0.293 HD
ENDBRANCH   5   8
BRANCH   7  10
ATOM     10  O   UNL     1      24.409 -31.969  21.587  1.00  0.00    -0.504 OA
ATOM     11  H   UNL     1      24.201 -31.253  22.215  1.00  0.00     0.293 HD
ENDBRANCH   7  10
ENDBRANCH   1   2
BRANCH   1  12
ATOM     12  C   UNL     1      23.000 -37.230  20.542  1.00  0.00     0.164 C 
BRANCH  12  13
ATOM     13  C   UNL     1      21.672 -37.712  21.203  1.00  0.00     0.070 C 
ATOM     14  O   UNL     1      21.762 -38.876  21.709  1.00  0.00    -0.547 OA
ATOM     15  O   UNL     1      20.687 -36.927  21.154  1.00  0.00    -0.547 OA
ENDBRANCH  12  13
BRANCH  12  16
ATOM     16  O   UNL     1      23.515 -38.296  19.692  1.00  0.00    -0.387 OA
ATOM     17  H   UNL     1      22.797 -38.367  19.011  1.00  0.00     0.211 HD
ENDBRANCH  12  16
ENDBRANCH   1  12
TORSDOF 6
ENDMDL
