REMARK SMILES COc1ccccc1-c1noc(C)c1C(=O)N1CCN(c2cc(NC(=O)c3ccccn3)c([N+](=O)[O-])cc2Cl)CC1
REMARK SMILES IDX 15 1 19 2 40 3 18 4 41 5 20 6 17 7 16 8 14 9 9 10 10 11
REMARK SMILES IDX 12 12 11 13 13 14 8 15 6 16 5 17 7 18 4 19 3 20 2 21 1 22
REMARK SMILES IDX 21 23 22 24 38 25 23 26 37 27 33 28 39 29 24 30 25 31 26 32
REMARK SMILES IDX 27 34 28 35 32 36 29 37 31 38 30 39 34 40 35 41 36 42
REMARK H PARENT 24 33
ROOT
ATOM      1  C   UNL     1      22.758 -37.727  20.087  1.00  0.00     0.259 C 
ATOM      2  C   UNL     1      24.123 -36.810  16.843  1.00  0.00     0.138 C 
ATOM      3  C   UNL     1      23.791 -34.780  18.199  1.00  0.00     0.138 C 
ATOM      4  C   UNL     1      22.954 -37.470  17.571  1.00  0.00     0.141 C 
ATOM      5  C   UNL     1      22.694 -35.487  18.998  1.00  0.00     0.141 C 
ATOM      6  N   UNL     1      23.955 -35.353  16.852  1.00  0.00    -0.367 N 
ATOM      7  N   UNL     1      22.808 -36.943  18.930  1.00  0.00    -0.335 N 
ATOM      8  O   UNL     1      22.834 -38.955  20.090  1.00  0.00    -0.269 OA
ENDROOT
BRANCH   1   9
ATOM      9  C   UNL     1      22.604 -37.092  21.408  1.00  0.00     0.110 A 
ATOM     10  C   UNL     1      23.378 -36.108  22.062  1.00  0.00     0.130 A 
ATOM     11  N   UNL     1      22.900 -35.803  23.269  1.00  0.00    -0.079 NA
ATOM     12  C   UNL     1      21.617 -37.375  22.316  1.00  0.00     0.147 A 
ATOM     13  O   UNL     1      21.779 -36.609  23.424  1.00  0.00    -0.360 OA
ATOM     14  C   UNL     1      20.467 -38.289  22.331  1.00  0.00     0.092 C 
BRANCH  10  15
ATOM     15  C   UNL     1      24.556 -35.431  21.583  1.00  0.00     0.047 A 
ATOM     16  C   UNL     1      25.764 -33.363  21.260  1.00  0.00     0.001 A 
ATOM     17  C   UNL     1      26.813 -34.068  20.670  1.00  0.00     0.004 A 
ATOM     18  C   UNL     1      24.635 -34.044  21.717  1.00  0.00     0.014 A 
ATOM     19  C   UNL     1      26.733 -35.453  20.539  1.00  0.00     0.047 A 
ATOM     20  C   UNL     1      25.606 -36.136  20.997  1.00  0.00     0.128 A 
BRANCH  20  21
ATOM     21  O   UNL     1      25.555 -37.496  20.862  1.00  0.00    -0.496 OA
ATOM     22  C   UNL     1      26.694 -38.144  20.295  1.00  0.00     0.278 C 
ENDBRANCH  20  21
ENDBRANCH  10  15
ENDBRANCH   1   9
BRANCH   6  23
ATOM     23  C   UNL     1      24.714 -34.579  15.961  1.00  0.00     0.058 A 
ATOM     24  C   UNL     1      25.994 -35.026  15.620  1.00  0.00     0.061 A 
ATOM     25  C   UNL     1      24.232 -33.378  15.425  1.00  0.00     0.071 A 
ATOM     26  C   UNL     1      26.775 -34.272  14.742  1.00  0.00     0.122 A 
ATOM     27  C   UNL     1      25.014 -32.633  14.555  1.00  0.00     0.110 A 
ATOM     28  C   UNL     1      26.283 -33.082  14.219  1.00  0.00     0.294 A 
ATOM     29  Cl  UNL     1      22.673 -32.738  15.789  1.00  0.00    -0.082 Cl
BRANCH  26  30
ATOM     30  N   UNL     1      28.055 -34.707  14.389  1.00  0.00    -0.315 N 
ATOM     31  C   UNL     1      28.755 -35.858  14.784  1.00  0.00     0.274 C 
ATOM     32  O   UNL     1      28.306 -36.704  15.552  1.00  0.00    -0.267 OA
ATOM     33  H   UNL     1      28.562 -34.089  13.740  1.00  0.00     0.170 HD
BRANCH  31  34
ATOM     34  C   UNL     1      30.105 -35.988  14.204  1.00  0.00     0.128 A 
ATOM     35  C   UNL     1      30.901 -37.077  14.516  1.00  0.00     0.034 A 
ATOM     36  N   UNL     1      30.483 -34.991  13.372  1.00  0.00    -0.251 NA
ATOM     37  C   UNL     1      32.165 -37.148  13.940  1.00  0.00     0.004 A 
ATOM     38  C   UNL     1      31.717 -35.091  12.828  1.00  0.00     0.112 A 
ATOM     39  C   UNL     1      32.588 -36.142  13.079  1.00  0.00     0.020 A 
ENDBRANCH  31  34
ENDBRANCH  26  30
BRANCH  28  40
ATOM     40  N   UNL     1      27.066 -32.303  13.331  1.00  0.00     0.065 N 
ATOM     41  O   UNL     1      28.098 -32.834  12.863  1.00  0.00    -0.258 OA
ATOM     42  O   UNL     1      26.561 -31.264  12.841  1.00  0.00    -0.258 OA
ENDBRANCH  28  40
ENDBRANCH   6  23
TORSDOF 7
