MODEL 1
REMARK VINA RESULT:   -10.483      0.000      0.000
REMARK INTER + INTRA:         -15.682
REMARK INTER:                 -14.773
REMARK INTRA:                  -0.909
REMARK UNBOUND:                -0.909
REMARK SMILES COc1ccccc1-c1noc(C)c1C(=O)N1CCN(c2cc(NC(=O)c3ccccn3)c([N+](=O)[O-])cc2Cl)CC1
REMARK SMILES IDX 15 1 19 2 40 3 18 4 41 5 20 6 17 7 16 8 14 9 9 10 10 11
REMARK SMILES IDX 12 12 11 13 13 14 8 15 6 16 5 17 7 18 4 19 3 20 2 21 1 22
REMARK SMILES IDX 21 23 22 24 38 25 23 26 37 27 33 28 39 29 24 30 25 31 26 32
REMARK SMILES IDX 27 34 28 35 32 36 29 37 31 38 30 39 34 40 35 41 36 42
REMARK H PARENT 24 33
ROOT
ATOM      1  C   UNL     1      23.588 -35.551  19.586  1.00  0.00     0.259 C 
ATOM      2  C   UNL     1      24.728 -37.660  16.851  1.00  0.00     0.138 C 
ATOM      3  C   UNL     1      25.300 -38.720  19.000  1.00  0.00     0.138 C 
ATOM      4  C   UNL     1      24.849 -36.288  17.512  1.00  0.00     0.141 C 
ATOM      5  C   UNL     1      25.311 -37.349  19.679  1.00  0.00     0.141 C 
ATOM      6  N   UNL     1      25.575 -38.627  17.556  1.00  0.00    -0.367 N 
ATOM      7  N   UNL     1      24.532 -36.357  18.940  1.00  0.00    -0.335 N 
ATOM      8  O   UNL     1      22.915 -34.691  19.020  1.00  0.00    -0.269 OA
ENDROOT
BRANCH   1   9
ATOM      9  C   UNL     1      23.351 -35.701  21.033  1.00  0.00     0.110 A 
ATOM     10  C   UNL     1      23.922 -35.038  22.142  1.00  0.00     0.130 A 
ATOM     11  N   UNL     1      23.433 -35.475  23.304  1.00  0.00    -0.079 NA
ATOM     12  C   UNL     1      22.479 -36.588  21.608  1.00  0.00     0.147 A 
ATOM     13  O   UNL     1      22.514 -36.458  22.958  1.00  0.00    -0.360 OA
ATOM     14  C   UNL     1      21.549 -37.599  21.086  1.00  0.00     0.092 C 
BRANCH  10  15
ATOM     15  C   UNL     1      24.913 -33.992  22.147  1.00  0.00     0.047 A 
ATOM     16  C   UNL     1      27.058 -33.174  21.395  1.00  0.00     0.001 A 
ATOM     17  C   UNL     1      26.866 -32.000  22.124  1.00  0.00     0.004 A 
ATOM     18  C   UNL     1      26.082 -34.170  21.406  1.00  0.00     0.014 A 
ATOM     19  C   UNL     1      25.697 -31.823  22.862  1.00  0.00     0.047 A 
ATOM     20  C   UNL     1      24.719 -32.818  22.872  1.00  0.00     0.128 A 
BRANCH  20  21
ATOM     21  O   UNL     1      23.578 -32.617  23.600  1.00  0.00    -0.496 OA
ATOM     22  C   UNL     1      23.727 -32.164  24.946  1.00  0.00     0.278 C 
ENDBRANCH  20  21
ENDBRANCH  10  15
ENDBRANCH   1   9
BRANCH   6  23
ATOM     23  C   UNL     1      25.882 -39.843  16.926  1.00  0.00     0.058 A 
ATOM     24  C   UNL     1      24.980 -40.347  15.984  1.00  0.00     0.061 A 
ATOM     25  C   UNL     1      27.047 -40.561  17.226  1.00  0.00     0.071 A 
ATOM     26  C   UNL     1      25.255 -41.559  15.347  1.00  0.00     0.122 A 
ATOM     27  C   UNL     1      27.313 -41.765  16.591  1.00  0.00     0.110 A 
ATOM     28  C   UNL     1      26.415 -42.260  15.656  1.00  0.00     0.294 A 
ATOM     29  Cl  UNL     1      28.216 -40.030  18.377  1.00  0.00    -0.082 Cl
BRANCH  26  30
ATOM     30  N   UNL     1      24.366 -42.074  14.401  1.00  0.00    -0.315 N 
ATOM     31  C   UNL     1      22.981 -41.883  14.271  1.00  0.00     0.274 C 
ATOM     32  O   UNL     1      22.311 -41.185  15.026  1.00  0.00    -0.267 OA
ATOM     33  H   UNL     1      24.791 -42.687  13.691  1.00  0.00     0.170 HD
BRANCH  31  34
ATOM     34  C   UNL     1      22.364 -42.597  13.137  1.00  0.00     0.128 A 
ATOM     35  C   UNL     1      22.996 -42.638  11.906  1.00  0.00     0.034 A 
ATOM     36  N   UNL     1      21.175 -43.188  13.395  1.00  0.00    -0.251 NA
ATOM     37  C   UNL     1      22.369 -43.326  10.873  1.00  0.00     0.004 A 
ATOM     38  C   UNL     1      20.592 -43.849  12.369  1.00  0.00     0.112 A 
ATOM     39  C   UNL     1      21.146 -43.946  11.100  1.00  0.00     0.020 A 
ENDBRANCH  31  34
ENDBRANCH  26  30
BRANCH  28  40
ATOM     40  N   UNL     1      26.705 -43.494  15.023  1.00  0.00     0.065 N 
ATOM     41  O   UNL     1      27.898 -43.709  14.710  1.00  0.00    -0.258 OA
ATOM     42  O   UNL     1      25.844 -44.405  15.063  1.00  0.00    -0.258 OA
ENDBRANCH  28  40
ENDBRANCH   6  23
TORSDOF 7
ENDMDL
MODEL 2
REMARK VINA RESULT:   -10.145      4.858     11.835
REMARK INTER + INTRA:         -15.205
REMARK INTER:                 -15.163
REMARK INTRA:                  -0.043
REMARK UNBOUND:                -0.909
REMARK SMILES COc1ccccc1-c1noc(C)c1C(=O)N1CCN(c2cc(NC(=O)c3ccccn3)c([N+](=O)[O-])cc2Cl)CC1
REMARK SMILES IDX 15 1 19 2 40 3 18 4 41 5 20 6 17 7 16 8 14 9 9 10 10 11
REMARK SMILES IDX 12 12 11 13 13 14 8 15 6 16 5 17 7 18 4 19 3 20 2 21 1 22
REMARK SMILES IDX 21 23 22 24 38 25 23 26 37 27 33 28 39 29 24 30 25 31 26 32
REMARK SMILES IDX 27 34 28 35 32 36 29 37 31 38 30 39 34 40 35 41 36 42
REMARK H PARENT 24 33
ROOT
ATOM      1  C   UNL     1      24.443 -37.125  17.926  1.00  0.00     0.259 C 
ATOM      2  C   UNL     1      23.291 -35.818  21.118  1.00  0.00     0.138 C 
ATOM      3  C   UNL     1      25.610 -35.089  20.720  1.00  0.00     0.138 C 
ATOM      4  C   UNL     1      23.563 -37.081  20.305  1.00  0.00     0.141 C 
ATOM      5  C   UNL     1      25.841 -36.301  19.816  1.00  0.00     0.141 C 
ATOM      6  N   UNL     1      24.541 -35.325  21.705  1.00  0.00    -0.367 N 
ATOM      7  N   UNL     1      24.592 -36.847  19.288  1.00  0.00    -0.335 N 
ATOM      8  O   UNL     1      23.422 -37.597  17.427  1.00  0.00    -0.269 OA
ENDROOT
BRANCH   1   9
ATOM      9  C   UNL     1      25.547 -36.854  16.987  1.00  0.00     0.110 A 
ATOM     10  C   UNL     1      25.763 -35.785  16.090  1.00  0.00     0.130 A 
ATOM     11  N   UNL     1      26.898 -35.918  15.404  1.00  0.00    -0.079 NA
ATOM     12  C   UNL     1      26.637 -37.660  16.789  1.00  0.00     0.147 A 
ATOM     13  O   UNL     1      27.452 -37.110  15.855  1.00  0.00    -0.360 OA
ATOM     14  C   UNL     1      27.089 -38.935  17.362  1.00  0.00     0.092 C 
BRANCH  10  15
ATOM     15  C   UNL     1      24.936 -34.628  15.860  1.00  0.00     0.047 A 
ATOM     16  C   UNL     1      23.031 -33.288  16.505  1.00  0.00     0.001 A 
ATOM     17  C   UNL     1      23.299 -32.404  15.460  1.00  0.00     0.004 A 
ATOM     18  C   UNL     1      23.849 -34.400  16.706  1.00  0.00     0.014 A 
ATOM     19  C   UNL     1      24.386 -32.632  14.618  1.00  0.00     0.047 A 
ATOM     20  C   UNL     1      25.206 -33.743  14.818  1.00  0.00     0.128 A 
BRANCH  20  21
ATOM     21  O   UNL     1      26.270 -33.941  13.981  1.00  0.00    -0.496 OA
ATOM     22  C   UNL     1      26.813 -32.795  13.326  1.00  0.00     0.278 C 
ENDBRANCH  20  21
ENDBRANCH  10  15
ENDBRANCH   1   9
BRANCH   6  23
ATOM     23  C   UNL     1      24.476 -34.394  22.752  1.00  0.00     0.058 A 
ATOM     24  C   UNL     1      25.510 -33.460  22.874  1.00  0.00     0.061 A 
ATOM     25  C   UNL     1      23.422 -34.387  23.675  1.00  0.00     0.071 A 
ATOM     26  C   UNL     1      25.475 -32.527  23.911  1.00  0.00     0.122 A 
ATOM     27  C   UNL     1      23.395 -33.458  24.704  1.00  0.00     0.110 A 
ATOM     28  C   UNL     1      24.423 -32.533  24.819  1.00  0.00     0.294 A 
ATOM     29  Cl  UNL     1      22.106 -35.499  23.616  1.00  0.00    -0.082 Cl
BRANCH  26  30
ATOM     30  N   UNL     1      26.499 -31.586  24.045  1.00  0.00    -0.315 N 
ATOM     31  C   UNL     1      27.808 -31.742  24.527  1.00  0.00     0.274 C 
ATOM     32  O   UNL     1      28.268 -32.807  24.930  1.00  0.00    -0.267 OA
ATOM     33  H   UNL     1      26.257 -30.632  23.742  1.00  0.00     0.170 HD
BRANCH  31  34
ATOM     34  C   UNL     1      28.618 -30.510  24.524  1.00  0.00     0.128 A 
ATOM     35  C   UNL     1      28.055 -29.298  24.887  1.00  0.00     0.034 A 
ATOM     36  N   UNL     1      29.910 -30.659  24.151  1.00  0.00    -0.251 NA
ATOM     37  C   UNL     1      28.866 -28.168  24.865  1.00  0.00     0.004 A 
ATOM     38  C   UNL     1      30.671 -29.542  24.142  1.00  0.00     0.112 A 
ATOM     39  C   UNL     1      30.199 -28.283  24.488  1.00  0.00     0.020 A 
ENDBRANCH  31  34
ENDBRANCH  26  30
BRANCH  28  40
ATOM     40  N   UNL     1      24.377 -31.595  25.881  1.00  0.00     0.065 N 
ATOM     41  O   UNL     1      25.143 -31.791  26.851  1.00  0.00    -0.258 OA
ATOM     42  O   UNL     1      23.808 -30.494  25.683  1.00  0.00    -0.258 OA
ENDBRANCH  28  40
ENDBRANCH   6  23
TORSDOF 7
ENDMDL
MODEL 3
REMARK VINA RESULT:    -9.852      6.086     10.675
REMARK INTER + INTRA:         -14.793
REMARK INTER:                 -14.244
REMARK INTRA:                  -0.550
REMARK UNBOUND:                -0.909
REMARK SMILES COc1ccccc1-c1noc(C)c1C(=O)N1CCN(c2cc(NC(=O)c3ccccn3)c([N+](=O)[O-])cc2Cl)CC1
REMARK SMILES IDX 15 1 19 2 40 3 18 4 41 5 20 6 17 7 16 8 14 9 9 10 10 11
REMARK SMILES IDX 12 12 11 13 13 14 8 15 6 16 5 17 7 18 4 19 3 20 2 21 1 22
REMARK SMILES IDX 21 23 22 24 38 25 23 26 37 27 33 28 39 29 24 30 25 31 26 32
REMARK SMILES IDX 27 34 28 35 32 36 29 37 31 38 30 39 34 40 35 41 36 42
REMARK H PARENT 24 33
ROOT
ATOM      1  C   UNL     1      32.187 -35.154  13.930  1.00  0.00     0.259 C 
ATOM      2  C   UNL     1      28.858 -33.744  13.530  1.00  0.00     0.138 C 
ATOM      3  C   UNL     1      28.778 -35.593  15.156  1.00  0.00     0.138 C 
ATOM      4  C   UNL     1      30.021 -34.436  12.822  1.00  0.00     0.141 C 
ATOM      5  C   UNL     1      30.012 -36.224  14.508  1.00  0.00     0.141 C 
ATOM      6  N   UNL     1      28.030 -34.741  14.216  1.00  0.00    -0.367 N 
ATOM      7  N   UNL     1      30.803 -35.251  13.755  1.00  0.00    -0.335 N 
ATOM      8  O   UNL     1      32.905 -34.366  13.315  1.00  0.00    -0.269 OA
ENDROOT
BRANCH   1   9
ATOM      9  C   UNL     1      32.876 -36.028  14.896  1.00  0.00     0.110 A 
ATOM     10  C   UNL     1      33.471 -37.299  14.738  1.00  0.00     0.130 A 
ATOM     11  N   UNL     1      33.992 -37.762  15.876  1.00  0.00    -0.079 NA
ATOM     12  C   UNL     1      33.064 -35.752  16.225  1.00  0.00     0.147 A 
ATOM     13  O   UNL     1      33.733 -36.773  16.816  1.00  0.00    -0.360 OA
ATOM     14  C   UNL     1      32.714 -34.624  17.098  1.00  0.00     0.092 C 
BRANCH  10  15
ATOM     15  C   UNL     1      33.577 -38.097  13.543  1.00  0.00     0.047 A 
ATOM     16  C   UNL     1      34.686 -38.532  11.440  1.00  0.00     0.001 A 
ATOM     17  C   UNL     1      33.826 -39.605  11.209  1.00  0.00     0.004 A 
ATOM     18  C   UNL     1      34.562 -37.777  12.608  1.00  0.00     0.014 A 
ATOM     19  C   UNL     1      32.844 -39.924  12.146  1.00  0.00     0.047 A 
ATOM     20  C   UNL     1      32.720 -39.172  13.314  1.00  0.00     0.128 A 
BRANCH  20  21
ATOM     21  O   UNL     1      31.753 -39.509  14.220  1.00  0.00    -0.496 OA
ATOM     22  C   UNL     1      31.968 -40.681  15.007  1.00  0.00     0.278 C 
ENDBRANCH  20  21
ENDBRANCH  10  15
ENDBRANCH   1   9
BRANCH   6  23
ATOM     23  C   UNL     1      26.741 -34.376  14.635  1.00  0.00     0.058 A 
ATOM     24  C   UNL     1      26.153 -35.101  15.676  1.00  0.00     0.061 A 
ATOM     25  C   UNL     1      26.033 -33.328  14.032  1.00  0.00     0.071 A 
ATOM     26  C   UNL     1      24.868 -34.767  16.108  1.00  0.00     0.122 A 
ATOM     27  C   UNL     1      24.757 -33.003  14.465  1.00  0.00     0.110 A 
ATOM     28  C   UNL     1      24.179 -33.725  15.499  1.00  0.00     0.294 A 
ATOM     29  Cl  UNL     1      26.666 -32.381  12.739  1.00  0.00    -0.082 Cl
BRANCH  26  30
ATOM     30  N   UNL     1      24.268 -35.480  17.149  1.00  0.00    -0.315 N 
ATOM     31  C   UNL     1      24.685 -35.653  18.478  1.00  0.00     0.274 C 
ATOM     32  O   UNL     1      25.711 -35.166  18.944  1.00  0.00    -0.267 OA
ATOM     33  H   UNL     1      23.386 -35.950  16.903  1.00  0.00     0.170 HD
BRANCH  31  34
ATOM     34  C   UNL     1      23.788 -36.484  19.302  1.00  0.00     0.128 A 
ATOM     35  C   UNL     1      23.124 -35.937  20.387  1.00  0.00     0.034 A 
ATOM     36  N   UNL     1      23.674 -37.777  18.921  1.00  0.00    -0.251 NA
ATOM     37  C   UNL     1      22.290 -36.768  21.129  1.00  0.00     0.004 A 
ATOM     38  C   UNL     1      22.855 -38.557  19.663  1.00  0.00     0.112 A 
ATOM     39  C   UNL     1      22.147 -38.102  20.766  1.00  0.00     0.020 A 
ENDBRANCH  31  34
ENDBRANCH  26  30
BRANCH  28  40
ATOM     40  N   UNL     1      22.872 -33.377  15.923  1.00  0.00     0.065 N 
ATOM     41  O   UNL     1      22.566 -33.639  17.108  1.00  0.00    -0.258 OA
ATOM     42  O   UNL     1      22.202 -32.588  15.213  1.00  0.00    -0.258 OA
ENDBRANCH  28  40
ENDBRANCH   6  23
TORSDOF 7
ENDMDL
MODEL 4
REMARK VINA RESULT:    -9.715      5.004      7.575
REMARK INTER + INTRA:         -14.600
REMARK INTER:                 -12.710
REMARK INTRA:                  -1.889
REMARK UNBOUND:                -0.909
REMARK SMILES COc1ccccc1-c1noc(C)c1C(=O)N1CCN(c2cc(NC(=O)c3ccccn3)c([N+](=O)[O-])cc2Cl)CC1
REMARK SMILES IDX 15 1 19 2 40 3 18 4 41 5 20 6 17 7 16 8 14 9 9 10 10 11
REMARK SMILES IDX 12 12 11 13 13 14 8 15 6 16 5 17 7 18 4 19 3 20 2 21 1 22
REMARK SMILES IDX 21 23 22 24 38 25 23 26 37 27 33 28 39 29 24 30 25 31 26 32
REMARK SMILES IDX 27 34 28 35 32 36 29 37 31 38 30 39 34 40 35 41 36 42
REMARK H PARENT 24 33
ROOT
ATOM      1  C   UNL     1      24.872 -34.933  19.528  1.00  0.00     0.259 C 
ATOM      2  C   UNL     1      28.292 -36.150  19.315  1.00  0.00     0.138 C 
ATOM      3  C   UNL     1      26.761 -37.831  18.367  1.00  0.00     0.138 C 
ATOM      4  C   UNL     1      27.181 -35.689  20.256  1.00  0.00     0.141 C 
ATOM      5  C   UNL     1      25.622 -37.290  19.235  1.00  0.00     0.141 C 
ATOM      6  N   UNL     1      28.084 -37.555  18.952  1.00  0.00    -0.367 N 
ATOM      7  N   UNL     1      25.859 -35.914  19.667  1.00  0.00    -0.335 N 
ATOM      8  O   UNL     1      25.008 -33.763  19.886  1.00  0.00    -0.269 OA
ENDROOT
BRANCH   1   9
ATOM      9  C   UNL     1      23.570 -35.269  18.924  1.00  0.00     0.110 A 
ATOM     10  C   UNL     1      23.027 -34.962  17.657  1.00  0.00     0.130 A 
ATOM     11  N   UNL     1      21.797 -35.453  17.498  1.00  0.00    -0.079 NA
ATOM     12  C   UNL     1      22.570 -35.980  19.535  1.00  0.00     0.147 A 
ATOM     13  O   UNL     1      21.513 -36.102  18.693  1.00  0.00    -0.360 OA
ATOM     14  C   UNL     1      22.419 -36.617  20.850  1.00  0.00     0.092 C 
BRANCH  10  15
ATOM     15  C   UNL     1      23.632 -34.225  16.578  1.00  0.00     0.047 A 
ATOM     16  C   UNL     1      23.744 -32.199  15.265  1.00  0.00     0.001 A 
ATOM     17  C   UNL     1      24.767 -32.753  14.497  1.00  0.00     0.004 A 
ATOM     18  C   UNL     1      23.176 -32.934  16.306  1.00  0.00     0.014 A 
ATOM     19  C   UNL     1      25.223 -34.041  14.771  1.00  0.00     0.047 A 
ATOM     20  C   UNL     1      24.658 -34.777  15.812  1.00  0.00     0.128 A 
BRANCH  20  21
ATOM     21  O   UNL     1      25.127 -36.037  16.064  1.00  0.00    -0.496 OA
ATOM     22  C   UNL     1      26.214 -36.506  15.266  1.00  0.00     0.278 C 
ENDBRANCH  20  21
ENDBRANCH  10  15
ENDBRANCH   1   9
BRANCH   6  23
ATOM     23  C   UNL     1      29.149 -38.272  18.385  1.00  0.00     0.058 A 
ATOM     24  C   UNL     1      29.914 -37.650  17.394  1.00  0.00     0.061 A 
ATOM     25  C   UNL     1      29.450 -39.585  18.772  1.00  0.00     0.071 A 
ATOM     26  C   UNL     1      30.975 -38.342  16.807  1.00  0.00     0.122 A 
ATOM     27  C   UNL     1      30.504 -40.267  18.183  1.00  0.00     0.110 A 
ATOM     28  C   UNL     1      31.260 -39.644  17.202  1.00  0.00     0.294 A 
ATOM     29  Cl  UNL     1      28.563 -40.442  19.977  1.00  0.00    -0.082 Cl
BRANCH  26  30
ATOM     30  N   UNL     1      31.751 -37.732  15.818  1.00  0.00    -0.315 N 
ATOM     31  C   UNL     1      31.357 -37.097  14.629  1.00  0.00     0.274 C 
ATOM     32  O   UNL     1      30.190 -36.982  14.268  1.00  0.00    -0.267 OA
ATOM     33  H   UNL     1      32.766 -37.751  15.987  1.00  0.00     0.170 HD
BRANCH  31  34
ATOM     34  C   UNL     1      32.468 -36.565  13.817  1.00  0.00     0.128 A 
ATOM     35  C   UNL     1      33.506 -37.391  13.421  1.00  0.00     0.034 A 
ATOM     36  N   UNL     1      32.387 -35.252  13.504  1.00  0.00    -0.251 NA
ATOM     37  C   UNL     1      34.526 -36.835  12.657  1.00  0.00     0.004 A 
ATOM     38  C   UNL     1      33.394 -34.744  12.759  1.00  0.00     0.112 A 
ATOM     39  C   UNL     1      34.477 -35.489  12.314  1.00  0.00     0.020 A 
ENDBRANCH  31  34
ENDBRANCH  26  30
BRANCH  28  40
ATOM     40  N   UNL     1      32.330 -40.361  16.611  1.00  0.00     0.065 N 
ATOM     41  O   UNL     1      32.113 -40.904  15.504  1.00  0.00    -0.258 OA
ATOM     42  O   UNL     1      33.489 -40.186  17.059  1.00  0.00    -0.258 OA
ENDBRANCH  28  40
ENDBRANCH   6  23
TORSDOF 7
ENDMDL
MODEL 5
REMARK VINA RESULT:    -9.337      4.121     12.217
REMARK INTER + INTRA:         -14.067
REMARK INTER:                 -13.045
REMARK INTRA:                  -1.022
REMARK UNBOUND:                -0.909
REMARK SMILES COc1ccccc1-c1noc(C)c1C(=O)N1CCN(c2cc(NC(=O)c3ccccn3)c([N+](=O)[O-])cc2Cl)CC1
REMARK SMILES IDX 15 1 19 2 40 3 18 4 41 5 20 6 17 7 16 8 14 9 9 10 10 11
REMARK SMILES IDX 12 12 11 13 13 14 8 15 6 16 5 17 7 18 4 19 3 20 2 21 1 22
REMARK SMILES IDX 21 23 22 24 38 25 23 26 37 27 33 28 39 29 24 30 25 31 26 32
REMARK SMILES IDX 27 34 28 35 32 36 29 37 31 38 30 39 34 40 35 41 36 42
REMARK H PARENT 24 33
ROOT
ATOM      1  C   UNL     1      23.718 -36.153  18.683  1.00  0.00     0.259 C 
ATOM      2  C   UNL     1      23.912 -34.903  22.093  1.00  0.00     0.138 C 
ATOM      3  C   UNL     1      25.859 -34.105  20.812  1.00  0.00     0.138 C 
ATOM      4  C   UNL     1      23.865 -36.152  21.215  1.00  0.00     0.141 C 
ATOM      5  C   UNL     1      25.737 -35.304  19.870  1.00  0.00     0.141 C 
ATOM      6  N   UNL     1      25.281 -34.379  22.139  1.00  0.00    -0.367 N 
ATOM      7  N   UNL     1      24.394 -35.881  19.877  1.00  0.00    -0.335 N 
ATOM      8  O   UNL     1      22.594 -36.651  18.627  1.00  0.00    -0.269 OA
ENDROOT
BRANCH   1   9
ATOM      9  C   UNL     1      24.346 -35.844  17.386  1.00  0.00     0.110 A 
ATOM     10  C   UNL     1      25.356 -36.514  16.660  1.00  0.00     0.130 A 
ATOM     11  N   UNL     1      25.654 -35.899  15.515  1.00  0.00    -0.079 NA
ATOM     12  C   UNL     1      24.055 -34.760  16.600  1.00  0.00     0.147 A 
ATOM     13  O   UNL     1      24.822 -34.786  15.480  1.00  0.00    -0.360 OA
ATOM     14  C   UNL     1      23.120 -33.633  16.710  1.00  0.00     0.092 C 
BRANCH  10  15
ATOM     15  C   UNL     1      26.049 -37.729  17.004  1.00  0.00     0.047 A 
ATOM     16  C   UNL     1      27.968 -38.801  18.008  1.00  0.00     0.001 A 
ATOM     17  C   UNL     1      27.437 -40.051  17.690  1.00  0.00     0.004 A 
ATOM     18  C   UNL     1      27.275 -37.640  17.665  1.00  0.00     0.014 A 
ATOM     19  C   UNL     1      26.212 -40.138  17.031  1.00  0.00     0.047 A 
ATOM     20  C   UNL     1      25.516 -38.978  16.689  1.00  0.00     0.128 A 
BRANCH  20  21
ATOM     21  O   UNL     1      24.313 -39.092  16.048  1.00  0.00    -0.496 OA
ATOM     22  C   UNL     1      23.213 -39.605  16.800  1.00  0.00     0.278 C 
ENDBRANCH  20  21
ENDBRANCH  10  15
ENDBRANCH   1   9
BRANCH   6  23
ATOM     23  C   UNL     1      25.619 -33.457  23.141  1.00  0.00     0.058 A 
ATOM     24  C   UNL     1      26.941 -33.008  23.209  1.00  0.00     0.061 A 
ATOM     25  C   UNL     1      24.680 -32.995  24.072  1.00  0.00     0.071 A 
ATOM     26  C   UNL     1      27.308 -32.097  24.202  1.00  0.00     0.122 A 
ATOM     27  C   UNL     1      25.052 -32.091  25.056  1.00  0.00     0.110 A 
ATOM     28  C   UNL     1      26.365 -31.648  25.118  1.00  0.00     0.294 A 
ATOM     29  Cl  UNL     1      23.029 -33.494  24.078  1.00  0.00    -0.082 Cl
BRANCH  26  30
ATOM     30  N   UNL     1      28.625 -31.636  24.281  1.00  0.00    -0.315 N 
ATOM     31  C   UNL     1      29.744 -32.212  24.903  1.00  0.00     0.274 C 
ATOM     32  O   UNL     1      29.718 -33.279  25.510  1.00  0.00    -0.267 OA
ATOM     33  H   UNL     1      28.802 -30.738  23.810  1.00  0.00     0.170 HD
BRANCH  31  34
ATOM     34  C   UNL     1      30.988 -31.429  24.782  1.00  0.00     0.128 A 
ATOM     35  C   UNL     1      30.943 -30.047  24.713  1.00  0.00     0.034 A 
ATOM     36  N   UNL     1      32.132 -32.149  24.747  1.00  0.00    -0.251 NA
ATOM     37  C   UNL     1      32.147 -29.360  24.599  1.00  0.00     0.004 A 
ATOM     38  C   UNL     1      33.285 -31.451  24.638  1.00  0.00     0.112 A 
ATOM     39  C   UNL     1      33.344 -30.066  24.561  1.00  0.00     0.020 A 
ENDBRANCH  31  34
ENDBRANCH  26  30
BRANCH  28  40
ATOM     40  N   UNL     1      26.724 -30.728  26.134  1.00  0.00     0.065 N 
ATOM     41  O   UNL     1      27.162 -29.614  25.768  1.00  0.00    -0.258 OA
ATOM     42  O   UNL     1      26.330 -30.945  27.306  1.00  0.00    -0.258 OA
ENDBRANCH  28  40
ENDBRANCH   6  23
TORSDOF 7
ENDMDL
MODEL 6
REMARK VINA RESULT:    -9.272      6.147      8.099
REMARK INTER + INTRA:         -13.975
REMARK INTER:                 -12.368
REMARK INTRA:                  -1.607
REMARK UNBOUND:                -0.909
REMARK SMILES COc1ccccc1-c1noc(C)c1C(=O)N1CCN(c2cc(NC(=O)c3ccccn3)c([N+](=O)[O-])cc2Cl)CC1
REMARK SMILES IDX 15 1 19 2 40 3 18 4 41 5 20 6 17 7 16 8 14 9 9 10 10 11
REMARK SMILES IDX 12 12 11 13 13 14 8 15 6 16 5 17 7 18 4 19 3 20 2 21 1 22
REMARK SMILES IDX 21 23 22 24 38 25 23 26 37 27 33 28 39 29 24 30 25 31 26 32
REMARK SMILES IDX 27 34 28 35 32 36 29 37 31 38 30 39 34 40 35 41 36 42
REMARK H PARENT 24 33
ROOT
ATOM      1  C   UNL     1      26.252 -37.027  17.497  1.00  0.00     0.259 C 
ATOM      2  C   UNL     1      28.408 -35.965  14.767  1.00  0.00     0.138 C 
ATOM      3  C   UNL     1      29.789 -36.625  16.698  1.00  0.00     0.138 C 
ATOM      4  C   UNL     1      27.297 -35.542  15.725  1.00  0.00     0.141 C 
ATOM      5  C   UNL     1      28.631 -36.302  17.644  1.00  0.00     0.141 C 
ATOM      6  N   UNL     1      29.708 -35.865  15.439  1.00  0.00    -0.367 N 
ATOM      7  N   UNL     1      27.336 -36.323  16.964  1.00  0.00    -0.335 N 
ATOM      8  O   UNL     1      25.137 -37.069  16.978  1.00  0.00    -0.269 OA
ENDROOT
BRANCH   1   9
ATOM      9  C   UNL     1      26.400 -37.779  18.755  1.00  0.00     0.110 A 
ATOM     10  C   UNL     1      26.020 -37.461  20.078  1.00  0.00     0.130 A 
ATOM     11  N   UNL     1      26.344 -38.421  20.946  1.00  0.00    -0.079 NA
ATOM     12  C   UNL     1      26.994 -39.008  18.882  1.00  0.00     0.147 A 
ATOM     13  O   UNL     1      26.960 -39.403  20.180  1.00  0.00    -0.360 OA
ATOM     14  C   UNL     1      27.622 -39.946  17.943  1.00  0.00     0.092 C 
BRANCH  10  15
ATOM     15  C   UNL     1      25.348 -36.280  20.558  1.00  0.00     0.047 A 
ATOM     16  C   UNL     1      25.401 -33.903  20.989  1.00  0.00     0.001 A 
ATOM     17  C   UNL     1      24.096 -33.962  21.476  1.00  0.00     0.004 A 
ATOM     18  C   UNL     1      26.028 -35.062  20.530  1.00  0.00     0.014 A 
ATOM     19  C   UNL     1      23.418 -35.180  21.502  1.00  0.00     0.047 A 
ATOM     20  C   UNL     1      24.042 -36.339  21.041  1.00  0.00     0.128 A 
BRANCH  20  21
ATOM     21  O   UNL     1      23.352 -37.520  21.070  1.00  0.00    -0.496 OA
ATOM     22  C   UNL     1      21.933 -37.449  21.214  1.00  0.00     0.278 C 
ENDBRANCH  20  21
ENDBRANCH  10  15
ENDBRANCH   1   9
BRANCH   6  23
ATOM     23  C   UNL     1      30.875 -35.872  14.659  1.00  0.00     0.058 A 
ATOM     24  C   UNL     1      31.520 -37.094  14.444  1.00  0.00     0.061 A 
ATOM     25  C   UNL     1      31.409 -34.699  14.112  1.00  0.00     0.071 A 
ATOM     26  C   UNL     1      32.687 -37.130  13.679  1.00  0.00     0.122 A 
ATOM     27  C   UNL     1      32.570 -34.742  13.354  1.00  0.00     0.110 A 
ATOM     28  C   UNL     1      33.206 -35.957  13.143  1.00  0.00     0.294 A 
ATOM     29  Cl  UNL     1      30.694 -33.144  14.325  1.00  0.00    -0.082 Cl
BRANCH  26  30
ATOM     30  N   UNL     1      33.342 -38.344  13.453  1.00  0.00    -0.315 N 
ATOM     31  C   UNL     1      32.849 -39.548  12.926  1.00  0.00     0.274 C 
ATOM     32  O   UNL     1      31.687 -39.713  12.565  1.00  0.00    -0.267 OA
ATOM     33  H   UNL     1      34.338 -38.356  13.712  1.00  0.00     0.170 HD
BRANCH  31  34
ATOM     34  C   UNL     1      33.842 -40.634  12.835  1.00  0.00     0.128 A 
ATOM     35  C   UNL     1      35.033 -40.440  12.156  1.00  0.00     0.034 A 
ATOM     36  N   UNL     1      33.504 -41.790  13.449  1.00  0.00    -0.251 NA
ATOM     37  C   UNL     1      35.934 -41.499  12.102  1.00  0.00     0.004 A 
ATOM     38  C   UNL     1      34.402 -42.799  13.379  1.00  0.00     0.112 A 
ATOM     39  C   UNL     1      35.621 -42.703  12.723  1.00  0.00     0.020 A 
ENDBRANCH  31  34
ENDBRANCH  26  30
BRANCH  28  40
ATOM     40  N   UNL     1      34.393 -35.977  12.369  1.00  0.00     0.065 N 
ATOM     41  O   UNL     1      34.418 -35.262  11.343  1.00  0.00    -0.258 OA
ATOM     42  O   UNL     1      35.432 -36.462  12.879  1.00  0.00    -0.258 OA
ENDBRANCH  28  40
ENDBRANCH   6  23
TORSDOF 7
ENDMDL
MODEL 7
REMARK VINA RESULT:    -9.139      5.663     11.009
REMARK INTER + INTRA:         -13.788
REMARK INTER:                 -11.836
REMARK INTRA:                  -1.952
REMARK UNBOUND:                -0.909
REMARK SMILES COc1ccccc1-c1noc(C)c1C(=O)N1CCN(c2cc(NC(=O)c3ccccn3)c([N+](=O)[O-])cc2Cl)CC1
REMARK SMILES IDX 15 1 19 2 40 3 18 4 41 5 20 6 17 7 16 8 14 9 9 10 10 11
REMARK SMILES IDX 12 12 11 13 13 14 8 15 6 16 5 17 7 18 4 19 3 20 2 21 1 22
REMARK SMILES IDX 21 23 22 24 38 25 23 26 37 27 33 28 39 29 24 30 25 31 26 32
REMARK SMILES IDX 27 34 28 35 32 36 29 37 31 38 30 39 34 40 35 41 36 42
REMARK H PARENT 24 33
ROOT
ATOM      1  C   UNL     1      30.955 -35.193  14.666  1.00  0.00     0.259 C 
ATOM      2  C   UNL     1      27.427 -35.490  15.495  1.00  0.00     0.138 C 
ATOM      3  C   UNL     1      28.759 -36.823  17.082  1.00  0.00     0.138 C 
ATOM      4  C   UNL     1      28.488 -35.730  14.424  1.00  0.00     0.141 C 
ATOM      5  C   UNL     1      29.868 -36.967  16.037  1.00  0.00     0.141 C 
ATOM      6  N   UNL     1      27.442 -36.590  16.465  1.00  0.00    -0.367 N 
ATOM      7  N   UNL     1      29.813 -35.917  15.021  1.00  0.00    -0.335 N 
ATOM      8  O   UNL     1      30.972 -34.310  13.809  1.00  0.00    -0.269 OA
ENDROOT
BRANCH   1   9
ATOM      9  C   UNL     1      32.243 -35.467  15.329  1.00  0.00     0.110 A 
ATOM     10  C   UNL     1      33.223 -36.453  15.083  1.00  0.00     0.130 A 
ATOM     11  N   UNL     1      34.256 -36.365  15.922  1.00  0.00    -0.079 NA
ATOM     12  C   UNL     1      32.753 -34.771  16.394  1.00  0.00     0.147 A 
ATOM     13  O   UNL     1      33.953 -35.292  16.751  1.00  0.00    -0.360 OA
ATOM     14  C   UNL     1      32.291 -33.623  17.187  1.00  0.00     0.092 C 
BRANCH  10  15
ATOM     15  C   UNL     1      33.228 -37.479  14.072  1.00  0.00     0.047 A 
ATOM     16  C   UNL     1      32.395 -39.606  13.281  1.00  0.00     0.001 A 
ATOM     17  C   UNL     1      33.198 -39.498  12.146  1.00  0.00     0.004 A 
ATOM     18  C   UNL     1      32.409 -38.597  14.245  1.00  0.00     0.014 A 
ATOM     19  C   UNL     1      34.013 -38.380  11.974  1.00  0.00     0.047 A 
ATOM     20  C   UNL     1      34.027 -37.369  12.935  1.00  0.00     0.128 A 
BRANCH  20  21
ATOM     21  O   UNL     1      34.831 -36.280  12.740  1.00  0.00    -0.496 OA
ATOM     22  C   UNL     1      34.315 -35.217  11.939  1.00  0.00     0.278 C 
ENDBRANCH  20  21
ENDBRANCH  10  15
ENDBRANCH   1   9
BRANCH   6  23
ATOM     23  C   UNL     1      26.343 -36.750  17.323  1.00  0.00     0.058 A 
ATOM     24  C   UNL     1      26.333 -36.039  18.526  1.00  0.00     0.061 A 
ATOM     25  C   UNL     1      25.279 -37.607  17.014  1.00  0.00     0.071 A 
ATOM     26  C   UNL     1      25.256 -36.185  19.403  1.00  0.00     0.122 A 
ATOM     27  C   UNL     1      24.213 -37.749  17.890  1.00  0.00     0.110 A 
ATOM     28  C   UNL     1      24.208 -37.039  19.082  1.00  0.00     0.294 A 
ATOM     29  Cl  UNL     1      25.201 -38.533  15.561  1.00  0.00    -0.082 Cl
BRANCH  26  30
ATOM     30  N   UNL     1      25.229 -35.478  20.608  1.00  0.00    -0.315 N 
ATOM     31  C   UNL     1      24.609 -34.259  20.923  1.00  0.00     0.274 C 
ATOM     32  O   UNL     1      23.956 -33.595  20.123  1.00  0.00    -0.267 OA
ATOM     33  H   UNL     1      25.743 -35.919  21.384  1.00  0.00     0.170 HD
BRANCH  31  34
ATOM     34  C   UNL     1      24.801 -33.810  22.315  1.00  0.00     0.128 A 
ATOM     35  C   UNL     1      23.772 -33.921  23.236  1.00  0.00     0.034 A 
ATOM     36  N   UNL     1      26.021 -33.303  22.604  1.00  0.00    -0.251 NA
ATOM     37  C   UNL     1      24.009 -33.482  24.534  1.00  0.00     0.004 A 
ATOM     38  C   UNL     1      26.218 -32.887  23.875  1.00  0.00     0.112 A 
ATOM     39  C   UNL     1      25.251 -32.956  24.869  1.00  0.00     0.020 A 
ENDBRANCH  31  34
ENDBRANCH  26  30
BRANCH  28  40
ATOM     40  N   UNL     1      23.111 -37.202  19.965  1.00  0.00     0.065 N 
ATOM     41  O   UNL     1      23.314 -37.851  21.015  1.00  0.00    -0.258 OA
ATOM     42  O   UNL     1      22.101 -36.474  19.807  1.00  0.00    -0.258 OA
ENDBRANCH  28  40
ENDBRANCH   6  23
TORSDOF 7
ENDMDL
MODEL 8
REMARK VINA RESULT:    -9.060      5.299     11.863
REMARK INTER + INTRA:         -13.677
REMARK INTER:                 -14.094
REMARK INTRA:                   0.417
REMARK UNBOUND:                -0.909
REMARK SMILES COc1ccccc1-c1noc(C)c1C(=O)N1CCN(c2cc(NC(=O)c3ccccn3)c([N+](=O)[O-])cc2Cl)CC1
REMARK SMILES IDX 15 1 19 2 40 3 18 4 41 5 20 6 17 7 16 8 14 9 9 10 10 11
REMARK SMILES IDX 12 12 11 13 13 14 8 15 6 16 5 17 7 18 4 19 3 20 2 21 1 22
REMARK SMILES IDX 21 23 22 24 38 25 23 26 37 27 33 28 39 29 24 30 25 31 26 32
REMARK SMILES IDX 27 34 28 35 32 36 29 37 31 38 30 39 34 40 35 41 36 42
REMARK H PARENT 24 33
ROOT
ATOM      1  C   UNL     1      27.661 -37.174  16.859  1.00  0.00     0.259 C 
ATOM      2  C   UNL     1      25.757 -36.627  19.909  1.00  0.00     0.138 C 
ATOM      3  C   UNL     1      27.136 -34.642  19.435  1.00  0.00     0.138 C 
ATOM      4  C   UNL     1      26.805 -37.501  19.225  1.00  0.00     0.141 C 
ATOM      5  C   UNL     1      28.126 -35.510  18.655  1.00  0.00     0.141 C 
ATOM      6  N   UNL     1      26.391 -35.416  20.441  1.00  0.00    -0.367 N 
ATOM      7  N   UNL     1      27.523 -36.757  18.187  1.00  0.00    -0.335 N 
ATOM      8  O   UNL     1      27.188 -38.218  16.413  1.00  0.00    -0.269 OA
ENDROOT
BRANCH   1   9
ATOM      9  C   UNL     1      28.410 -36.348  15.896  1.00  0.00     0.110 A 
ATOM     10  C   UNL     1      28.000 -35.274  15.076  1.00  0.00     0.130 A 
ATOM     11  N   UNL     1      28.995 -34.792  14.331  1.00  0.00    -0.079 NA
ATOM     12  C   UNL     1      29.738 -36.494  15.587  1.00  0.00     0.147 A 
ATOM     13  O   UNL     1      30.098 -35.569  14.662  1.00  0.00    -0.360 OA
ATOM     14  C   UNL     1      30.803 -37.399  16.038  1.00  0.00     0.092 C 
BRANCH  10  15
ATOM     15  C   UNL     1      26.694 -34.673  14.974  1.00  0.00     0.047 A 
ATOM     16  C   UNL     1      24.381 -34.624  15.673  1.00  0.00     0.001 A 
ATOM     17  C   UNL     1      24.145 -33.549  14.816  1.00  0.00     0.004 A 
ATOM     18  C   UNL     1      25.656 -35.186  15.753  1.00  0.00     0.014 A 
ATOM     19  C   UNL     1      25.184 -33.037  14.041  1.00  0.00     0.047 A 
ATOM     20  C   UNL     1      26.459 -33.596  14.120  1.00  0.00     0.128 A 
BRANCH  20  21
ATOM     21  O   UNL     1      27.462 -33.071  13.353  1.00  0.00    -0.496 OA
ATOM     22  C   UNL     1      27.356 -31.697  12.982  1.00  0.00     0.278 C 
ENDBRANCH  20  21
ENDBRANCH  10  15
ENDBRANCH   1   9
BRANCH   6  23
ATOM     23  C   UNL     1      25.697 -34.651  21.391  1.00  0.00     0.058 A 
ATOM     24  C   UNL     1      26.366 -33.584  21.999  1.00  0.00     0.061 A 
ATOM     25  C   UNL     1      24.374 -34.936  21.751  1.00  0.00     0.071 A 
ATOM     26  C   UNL     1      25.703 -32.810  22.953  1.00  0.00     0.122 A 
ATOM     27  C   UNL     1      23.722 -34.164  22.702  1.00  0.00     0.110 A 
ATOM     28  C   UNL     1      24.390 -33.106  23.300  1.00  0.00     0.294 A 
ATOM     29  Cl  UNL     1      23.466 -36.232  21.067  1.00  0.00    -0.082 Cl
BRANCH  26  30
ATOM     30  N   UNL     1      26.357 -31.739  23.567  1.00  0.00    -0.315 N 
ATOM     31  C   UNL     1      26.968 -30.611  22.996  1.00  0.00     0.274 C 
ATOM     32  O   UNL     1      27.017 -30.395  21.789  1.00  0.00    -0.267 OA
ATOM     33  H   UNL     1      26.396 -31.783  24.595  1.00  0.00     0.170 HD
BRANCH  31  34
ATOM     34  C   UNL     1      27.569 -29.678  23.967  1.00  0.00     0.128 A 
ATOM     35  C   UNL     1      28.926 -29.405  23.931  1.00  0.00     0.034 A 
ATOM     36  N   UNL     1      26.713 -29.131  24.860  1.00  0.00    -0.251 NA
ATOM     37  C   UNL     1      29.438 -28.517  24.871  1.00  0.00     0.004 A 
ATOM     38  C   UNL     1      27.243 -28.270  25.759  1.00  0.00     0.112 A 
ATOM     39  C   UNL     1      28.589 -27.934  25.804  1.00  0.00     0.020 A 
ENDBRANCH  31  34
ENDBRANCH  26  30
BRANCH  28  40
ATOM     40  N   UNL     1      23.706 -32.333  24.271  1.00  0.00     0.065 N 
ATOM     41  O   UNL     1      22.502 -32.074  24.051  1.00  0.00    -0.258 OA
ATOM     42  O   UNL     1      24.229 -32.194  25.403  1.00  0.00    -0.258 OA
ENDBRANCH  28  40
ENDBRANCH   6  23
TORSDOF 7
ENDMDL
MODEL 9
REMARK VINA RESULT:    -8.943      5.233     10.876
REMARK INTER + INTRA:         -13.511
REMARK INTER:                 -11.463
REMARK INTRA:                  -2.049
REMARK UNBOUND:                -0.909
REMARK SMILES COc1ccccc1-c1noc(C)c1C(=O)N1CCN(c2cc(NC(=O)c3ccccn3)c([N+](=O)[O-])cc2Cl)CC1
REMARK SMILES IDX 15 1 19 2 40 3 18 4 41 5 20 6 17 7 16 8 14 9 9 10 10 11
REMARK SMILES IDX 12 12 11 13 13 14 8 15 6 16 5 17 7 18 4 19 3 20 2 21 1 22
REMARK SMILES IDX 21 23 22 24 38 25 23 26 37 27 33 28 39 29 24 30 25 31 26 32
REMARK SMILES IDX 27 34 28 35 32 36 29 37 31 38 30 39 34 40 35 41 36 42
REMARK H PARENT 24 33
ROOT
ATOM      1  C   UNL     1      31.170 -35.676  15.122  1.00  0.00     0.259 C 
ATOM      2  C   UNL     1      27.604 -35.551  15.824  1.00  0.00     0.138 C 
ATOM      3  C   UNL     1      28.663 -37.258  17.251  1.00  0.00     0.138 C 
ATOM      4  C   UNL     1      28.664 -35.808  14.755  1.00  0.00     0.141 C 
ATOM      5  C   UNL     1      29.783 -37.430  16.222  1.00  0.00     0.141 C 
ATOM      6  N   UNL     1      27.420 -36.756  16.640  1.00  0.00    -0.367 N 
ATOM      7  N   UNL     1      29.922 -36.263  15.352  1.00  0.00    -0.335 N 
ATOM      8  O   UNL     1      31.350 -34.704  14.390  1.00  0.00    -0.269 OA
ENDROOT
BRANCH   1   9
ATOM      9  C   UNL     1      32.376 -36.219  15.773  1.00  0.00     0.110 A 
ATOM     10  C   UNL     1      33.313 -37.183  15.337  1.00  0.00     0.130 A 
ATOM     11  N   UNL     1      34.272 -37.404  16.237  1.00  0.00    -0.079 NA
ATOM     12  C   UNL     1      32.832 -35.874  17.018  1.00  0.00     0.147 A 
ATOM     13  O   UNL     1      33.963 -36.567  17.302  1.00  0.00    -0.360 OA
ATOM     14  C   UNL     1      32.373 -34.942  18.057  1.00  0.00     0.092 C 
BRANCH  10  15
ATOM     15  C   UNL     1      33.344 -37.902  14.089  1.00  0.00     0.047 A 
ATOM     16  C   UNL     1      34.230 -38.122  11.852  1.00  0.00     0.001 A 
ATOM     17  C   UNL     1      33.440 -39.254  11.650  1.00  0.00     0.004 A 
ATOM     18  C   UNL     1      34.182 -37.445  13.071  1.00  0.00     0.014 A 
ATOM     19  C   UNL     1      32.605 -39.709  12.669  1.00  0.00     0.047 A 
ATOM     20  C   UNL     1      32.557 -39.035  13.889  1.00  0.00     0.128 A 
BRANCH  20  21
ATOM     21  O   UNL     1      31.734 -39.506  14.874  1.00  0.00    -0.496 OA
ATOM     22  C   UNL     1      31.947 -40.843  15.327  1.00  0.00     0.278 C 
ENDBRANCH  20  21
ENDBRANCH  10  15
ENDBRANCH   1   9
BRANCH   6  23
ATOM     23  C   UNL     1      26.274 -36.860  17.444  1.00  0.00     0.058 A 
ATOM     24  C   UNL     1      26.247 -36.157  18.652  1.00  0.00     0.061 A 
ATOM     25  C   UNL     1      25.180 -37.653  17.077  1.00  0.00     0.071 A 
ATOM     26  C   UNL     1      25.124 -36.248  19.476  1.00  0.00     0.122 A 
ATOM     27  C   UNL     1      24.068 -37.740  17.901  1.00  0.00     0.110 A 
ATOM     28  C   UNL     1      24.045 -37.039  19.098  1.00  0.00     0.294 A 
ATOM     29  Cl  UNL     1      25.120 -38.563  15.614  1.00  0.00    -0.082 Cl
BRANCH  26  30
ATOM     30  N   UNL     1      25.080 -35.549  20.685  1.00  0.00    -0.315 N 
ATOM     31  C   UNL     1      24.564 -34.274  20.969  1.00  0.00     0.274 C 
ATOM     32  O   UNL     1      24.042 -33.543  20.132  1.00  0.00    -0.267 OA
ATOM     33  H   UNL     1      25.488 -36.044  21.490  1.00  0.00     0.170 HD
BRANCH  31  34
ATOM     34  C   UNL     1      24.696 -33.856  22.377  1.00  0.00     0.128 A 
ATOM     35  C   UNL     1      23.622 -33.960  23.245  1.00  0.00     0.034 A 
ATOM     36  N   UNL     1      25.911 -33.380  22.735  1.00  0.00    -0.251 NA
ATOM     37  C   UNL     1      23.804 -33.551  24.561  1.00  0.00     0.004 A 
ATOM     38  C   UNL     1      26.055 -32.992  24.022  1.00  0.00     0.112 A 
ATOM     39  C   UNL     1      25.039 -33.057  24.966  1.00  0.00     0.020 A 
ENDBRANCH  31  34
ENDBRANCH  26  30
BRANCH  28  40
ATOM     40  N   UNL     1      22.900 -37.146  19.927  1.00  0.00     0.065 N 
ATOM     41  O   UNL     1      22.973 -37.924  20.905  1.00  0.00    -0.258 OA
ATOM     42  O   UNL     1      22.002 -36.277  19.822  1.00  0.00    -0.258 OA
ENDBRANCH  28  40
ENDBRANCH   6  23
TORSDOF 7
ENDMDL
