MODEL 1
REMARK VINA RESULT:    -7.382      0.000      0.000
REMARK INTER + INTRA:         -11.079
REMARK INTER:                 -10.402
REMARK INTRA:                  -0.677
REMARK UNBOUND:                -0.677
REMARK SMILES CO[C@H]1OC(OC(=O)c2cc(O)c(O)c(O)c2)[C@H](O)[C@@H](O)[C@@H]1O
REMARK SMILES IDX 7 1 8 2 6 3 5 4 3 5 22 6 4 7 20 8 18 9 2 10 1 11 23 12 21 14
REMARK SMILES IDX 19 16 9 18 17 19 10 20 15 21 11 22 13 23 16 24 12 26 14 28
REMARK H PARENT 23 13 21 15 19 17 16 25 12 27 14 29
ROOT
ATOM      1  C   UNL     1      22.796 -36.556  18.183  1.00  0.00     0.340 C 
ATOM      2  O   UNL     1      22.249 -35.723  17.478  1.00  0.00    -0.246 OA
ENDROOT
BRANCH   1   3
ATOM      3  O   UNL     1      23.450 -37.666  17.768  1.00  0.00    -0.429 OA
BRANCH   3   4
ATOM      4  C   UNL     1      24.693 -37.439  17.085  1.00  0.00     0.345 C 
ATOM      5  C   UNL     1      25.961 -38.136  18.980  1.00  0.00     0.285 C 
ATOM      6  C   UNL     1      26.434 -39.418  18.273  1.00  0.00     0.202 C 
ATOM      7  O   UNL     1      25.715 -37.099  18.036  1.00  0.00    -0.308 OA
ATOM      8  C   UNL     1      25.404 -39.847  17.235  1.00  0.00     0.183 C 
ATOM      9  C   UNL     1      25.103 -38.692  16.281  1.00  0.00     0.215 C 
BRANCH   5  10
ATOM     10  O   UNL     1      27.013 -37.762  19.883  1.00  0.00    -0.353 OA
ATOM     11  C   UNL     1      27.992 -36.950  19.245  1.00  0.00     0.198 C 
ENDBRANCH   5  10
BRANCH   6  12
ATOM     12  O   UNL     1      26.631 -40.494  19.205  1.00  0.00    -0.385 OA
ATOM     13  H   UNL     1      25.869 -40.444  19.817  1.00  0.00     0.211 HD
ENDBRANCH   6  12
BRANCH   8  14
ATOM     14  O   UNL     1      25.899 -40.965  16.476  1.00  0.00    -0.387 OA
ATOM     15  H   UNL     1      25.118 -41.537  16.330  1.00  0.00     0.211 HD
ENDBRANCH   8  14
BRANCH   9  16
ATOM     16  O   UNL     1      24.093 -39.105  15.354  1.00  0.00    -0.384 OA
ATOM     17  H   UNL     1      24.569 -39.610  14.665  1.00  0.00     0.211 HD
ENDBRANCH   9  16
ENDBRANCH   3   4
ENDBRANCH   1   3
BRANCH   1  18
ATOM     18  C   UNL     1      22.830 -36.459  19.667  1.00  0.00     0.067 A 
ATOM     19  C   UNL     1      23.710 -35.524  20.241  1.00  0.00     0.066 A 
ATOM     20  C   UNL     1      22.025 -37.264  20.488  1.00  0.00     0.066 A 
ATOM     21  C   UNL     1      23.775 -35.401  21.625  1.00  0.00     0.162 A 
ATOM     22  C   UNL     1      22.108 -37.125  21.868  1.00  0.00     0.162 A 
ATOM     23  C   UNL     1      22.976 -36.201  22.434  1.00  0.00     0.200 A 
BRANCH  21  24
ATOM     24  O   UNL     1      24.609 -34.509  22.237  1.00  0.00    -0.504 OA
ATOM     25  H   UNL     1      25.528 -34.737  22.005  1.00  0.00     0.293 HD
ENDBRANCH  21  24
BRANCH  22  26
ATOM     26  O   UNL     1      21.328 -37.909  22.666  1.00  0.00    -0.504 OA
ATOM     27  H   UNL     1      20.409 -37.659  22.438  1.00  0.00     0.293 HD
ENDBRANCH  22  26
BRANCH  23  28
ATOM     28  O   UNL     1      23.033 -36.090  23.797  1.00  0.00    -0.502 OA
ATOM     29  H   UNL     1      23.027 -35.124  23.962  1.00  0.00     0.293 HD
ENDBRANCH  23  28
ENDBRANCH   1  18
TORSDOF 10
ENDMDL
MODEL 2
REMARK VINA RESULT:    -7.363      0.079      1.727
REMARK INTER + INTRA:         -11.053
REMARK INTER:                 -10.384
REMARK INTRA:                  -0.669
REMARK UNBOUND:                -0.677
REMARK SMILES CO[C@H]1OC(OC(=O)c2cc(O)c(O)c(O)c2)[C@H](O)[C@@H](O)[C@@H]1O
REMARK SMILES IDX 7 1 8 2 6 3 5 4 3 5 22 6 4 7 20 8 18 9 2 10 1 11 23 12 21 14
REMARK SMILES IDX 19 16 9 18 17 19 10 20 15 21 11 22 13 23 16 24 12 26 14 28
REMARK H PARENT 23 13 21 15 19 17 16 25 12 27 14 29
ROOT
ATOM      1  C   UNL     1      22.804 -36.563  18.201  1.00  0.00     0.340 C 
ATOM      2  O   UNL     1      22.211 -35.776  17.481  1.00  0.00    -0.246 OA
ENDROOT
BRANCH   1   3
ATOM      3  O   UNL     1      23.470 -37.675  17.812  1.00  0.00    -0.429 OA
BRANCH   3   4
ATOM      4  C   UNL     1      24.708 -37.451  17.119  1.00  0.00     0.345 C 
ATOM      5  C   UNL     1      25.990 -38.100  19.021  1.00  0.00     0.285 C 
ATOM      6  C   UNL     1      26.472 -39.391  18.337  1.00  0.00     0.202 C 
ATOM      7  O   UNL     1      25.731 -37.083  18.059  1.00  0.00    -0.308 OA
ATOM      8  C   UNL     1      25.441 -39.849  17.312  1.00  0.00     0.183 C 
ATOM      9  C   UNL     1      25.126 -38.714  16.337  1.00  0.00     0.215 C 
BRANCH   5  10
ATOM     10  O   UNL     1      27.043 -37.699  19.912  1.00  0.00    -0.353 OA
ATOM     11  C   UNL     1      27.929 -36.772  19.299  1.00  0.00     0.198 C 
ENDBRANCH   5  10
BRANCH   6  12
ATOM     12  O   UNL     1      26.682 -40.447  19.288  1.00  0.00    -0.385 OA
ATOM     13  H   UNL     1      26.709 -41.269  18.756  1.00  0.00     0.211 HD
ENDBRANCH   6  12
BRANCH   8  14
ATOM     14  O   UNL     1      25.943 -40.976  16.573  1.00  0.00    -0.387 OA
ATOM     15  H   UNL     1      25.675 -41.761  17.095  1.00  0.00     0.211 HD
ENDBRANCH   8  14
BRANCH   9  16
ATOM     16  O   UNL     1      24.115 -39.154  15.423  1.00  0.00    -0.384 OA
ATOM     17  H   UNL     1      23.284 -38.753  15.748  1.00  0.00     0.211 HD
ENDBRANCH   9  16
ENDBRANCH   3   4
ENDBRANCH   1   3
BRANCH   1  18
ATOM     18  C   UNL     1      22.889 -36.398  19.676  1.00  0.00     0.067 A 
ATOM     19  C   UNL     1      22.073 -37.220  20.475  1.00  0.00     0.066 A 
ATOM     20  C   UNL     1      23.742 -35.458  20.277  1.00  0.00     0.066 A 
ATOM     21  C   UNL     1      22.119 -37.097  21.859  1.00  0.00     0.162 A 
ATOM     22  C   UNL     1      23.770 -35.352  21.661  1.00  0.00     0.162 A 
ATOM     23  C   UNL     1      22.965 -36.165  22.449  1.00  0.00     0.200 A 
BRANCH  21  24
ATOM     24  O   UNL     1      21.352 -37.871  22.684  1.00  0.00    -0.504 OA
ATOM     25  H   UNL     1      20.613 -37.328  23.016  1.00  0.00     0.293 HD
ENDBRANCH  21  24
BRANCH  22  26
ATOM     26  O   UNL     1      24.596 -34.437  22.245  1.00  0.00    -0.504 OA
ATOM     27  H   UNL     1      24.527 -33.642  21.678  1.00  0.00     0.293 HD
ENDBRANCH  22  26
BRANCH  23  28
ATOM     28  O   UNL     1      23.018 -36.035  23.810  1.00  0.00    -0.502 OA
ATOM     29  H   UNL     1      23.617 -35.274  23.958  1.00  0.00     0.293 HD
ENDBRANCH  23  28
ENDBRANCH   1  18
TORSDOF 10
ENDMDL
MODEL 3
REMARK VINA RESULT:    -7.334      2.853      4.863
REMARK INTER + INTRA:         -11.012
REMARK INTER:                 -10.194
REMARK INTRA:                  -0.817
REMARK UNBOUND:                -0.677
REMARK SMILES CO[C@H]1OC(OC(=O)c2cc(O)c(O)c(O)c2)[C@H](O)[C@@H](O)[C@@H]1O
REMARK SMILES IDX 7 1 8 2 6 3 5 4 3 5 22 6 4 7 20 8 18 9 2 10 1 11 23 12 21 14
REMARK SMILES IDX 19 16 9 18 17 19 10 20 15 21 11 22 13 23 16 24 12 26 14 28
REMARK H PARENT 23 13 21 15 19 17 16 25 12 27 14 29
ROOT
ATOM      1  C   UNL     1      26.460 -34.627  21.143  1.00  0.00     0.340 C 
ATOM      2  O   UNL     1      27.633 -34.761  20.833  1.00  0.00    -0.246 OA
ENDROOT
BRANCH   1   3
ATOM      3  O   UNL     1      25.381 -34.991  20.411  1.00  0.00    -0.429 OA
BRANCH   3   4
ATOM      4  C   UNL     1      25.319 -36.377  20.039  1.00  0.00     0.345 C 
ATOM      5  C   UNL     1      22.946 -36.298  19.815  1.00  0.00     0.285 C 
ATOM      6  C   UNL     1      23.020 -36.454  18.286  1.00  0.00     0.202 C 
ATOM      7  O   UNL     1      24.056 -36.931  20.444  1.00  0.00    -0.308 OA
ATOM      8  C   UNL     1      24.341 -35.893  17.772  1.00  0.00     0.183 C 
ATOM      9  C   UNL     1      25.512 -36.535  18.515  1.00  0.00     0.215 C 
BRANCH   5  10
ATOM     10  O   UNL     1      21.714 -36.912  20.224  1.00  0.00    -0.353 OA
ATOM     11  C   UNL     1      21.914 -37.846  21.278  1.00  0.00     0.198 C 
ENDBRANCH   5  10
BRANCH   6  12
ATOM     12  O   UNL     1      21.939 -35.770  17.633  1.00  0.00    -0.385 OA
ATOM     13  H   UNL     1      21.128 -36.087  18.081  1.00  0.00     0.211 HD
ENDBRANCH   6  12
BRANCH   8  14
ATOM     14  O   UNL     1      24.478 -36.156  16.365  1.00  0.00    -0.387 OA
ATOM     15  H   UNL     1      25.421 -35.984  16.166  1.00  0.00     0.211 HD
ENDBRANCH   8  14
BRANCH   9  16
ATOM     16  O   UNL     1      26.734 -35.949  18.053  1.00  0.00    -0.384 OA
ATOM     17  H   UNL     1      26.695 -35.016  18.343  1.00  0.00     0.211 HD
ENDBRANCH   9  16
ENDBRANCH   3   4
ENDBRANCH   1   3
BRANCH   1  18
ATOM     18  C   UNL     1      26.031 -34.025  22.434  1.00  0.00     0.067 A 
ATOM     19  C   UNL     1      27.025 -33.461  23.255  1.00  0.00     0.066 A 
ATOM     20  C   UNL     1      24.689 -34.011  22.845  1.00  0.00     0.066 A 
ATOM     21  C   UNL     1      26.669 -32.889  24.471  1.00  0.00     0.162 A 
ATOM     22  C   UNL     1      24.357 -33.436  24.064  1.00  0.00     0.162 A 
ATOM     23  C   UNL     1      25.338 -32.878  24.873  1.00  0.00     0.200 A 
BRANCH  21  24
ATOM     24  O   UNL     1      27.591 -32.325  25.307  1.00  0.00    -0.504 OA
ATOM     25  H   UNL     1      28.252 -31.857  24.764  1.00  0.00     0.293 HD
ENDBRANCH  21  24
BRANCH  22  26
ATOM     26  O   UNL     1      23.053 -33.425  24.465  1.00  0.00    -0.504 OA
ATOM     27  H   UNL     1      22.777 -34.364  24.440  1.00  0.00     0.293 HD
ENDBRANCH  22  26
BRANCH  23  28
ATOM     28  O   UNL     1      24.976 -32.319  26.069  1.00  0.00    -0.502 OA
ATOM     29  H   UNL     1      25.805 -32.306  26.591  1.00  0.00     0.293 HD
ENDBRANCH  23  28
ENDBRANCH   1  18
TORSDOF 10
ENDMDL
MODEL 4
REMARK VINA RESULT:    -7.241      2.542      4.459
REMARK INTER + INTRA:         -10.882
REMARK INTER:                 -10.091
REMARK INTRA:                  -0.790
REMARK UNBOUND:                -0.677
REMARK SMILES CO[C@H]1OC(OC(=O)c2cc(O)c(O)c(O)c2)[C@H](O)[C@@H](O)[C@@H]1O
REMARK SMILES IDX 7 1 8 2 6 3 5 4 3 5 22 6 4 7 20 8 18 9 2 10 1 11 23 12 21 14
REMARK SMILES IDX 19 16 9 18 17 19 10 20 15 21 11 22 13 23 16 24 12 26 14 28
REMARK H PARENT 23 13 21 15 19 17 16 25 12 27 14 29
ROOT
ATOM      1  C   UNL     1      23.714 -35.786  22.275  1.00  0.00     0.340 C 
ATOM      2  O   UNL     1      22.928 -36.434  22.947  1.00  0.00    -0.246 OA
ENDROOT
BRANCH   1   3
ATOM      3  O   UNL     1      24.082 -36.032  20.996  1.00  0.00    -0.429 OA
BRANCH   3   4
ATOM      4  C   UNL     1      23.008 -36.259  20.071  1.00  0.00     0.345 C 
ATOM      5  C   UNL     1      24.410 -35.801  18.198  1.00  0.00     0.285 C 
ATOM      6  C   UNL     1      24.388 -37.270  17.740  1.00  0.00     0.202 C 
ATOM      7  O   UNL     1      23.210 -35.468  18.888  1.00  0.00    -0.308 OA
ATOM      8  C   UNL     1      24.170 -38.183  18.941  1.00  0.00     0.183 C 
ATOM      9  C   UNL     1      22.917 -37.757  19.706  1.00  0.00     0.215 C 
BRANCH   5  10
ATOM     10  O   UNL     1      24.546 -35.010  17.007  1.00  0.00    -0.353 OA
ATOM     11  C   UNL     1      23.362 -34.275  16.723  1.00  0.00     0.198 C 
ENDBRANCH   5  10
BRANCH   6  12
ATOM     12  O   UNL     1      25.617 -37.640  17.093  1.00  0.00    -0.385 OA
ATOM     13  H   UNL     1      25.360 -38.300  16.417  1.00  0.00     0.211 HD
ENDBRANCH   6  12
BRANCH   8  14
ATOM     14  O   UNL     1      24.013 -39.545  18.507  1.00  0.00    -0.387 OA
ATOM     15  H   UNL     1      23.833 -39.485  17.546  1.00  0.00     0.211 HD
ENDBRANCH   8  14
BRANCH   9  16
ATOM     16  O   UNL     1      22.769 -38.594  20.858  1.00  0.00    -0.384 OA
ATOM     17  H   UNL     1      22.089 -39.252  20.610  1.00  0.00     0.211 HD
ENDBRANCH   9  16
ENDBRANCH   3   4
ENDBRANCH   1   3
BRANCH   1  18
ATOM     18  C   UNL     1      24.404 -34.573  22.790  1.00  0.00     0.067 A 
ATOM     19  C   UNL     1      25.446 -34.035  22.013  1.00  0.00     0.066 A 
ATOM     20  C   UNL     1      24.050 -33.970  24.007  1.00  0.00     0.066 A 
ATOM     21  C   UNL     1      26.120 -32.902  22.457  1.00  0.00     0.162 A 
ATOM     22  C   UNL     1      24.738 -32.840  24.431  1.00  0.00     0.162 A 
ATOM     23  C   UNL     1      25.766 -32.308  23.663  1.00  0.00     0.200 A 
BRANCH  21  24
ATOM     24  O   UNL     1      27.137 -32.335  21.743  1.00  0.00    -0.504 OA
ATOM     25  H   UNL     1      27.319 -32.896  20.967  1.00  0.00     0.293 HD
ENDBRANCH  21  24
BRANCH  22  26
ATOM     26  O   UNL     1      24.396 -32.255  25.615  1.00  0.00    -0.504 OA
ATOM     27  H   UNL     1      23.559 -31.783  25.426  1.00  0.00     0.293 HD
ENDBRANCH  22  26
BRANCH  23  28
ATOM     28  O   UNL     1      26.422 -31.194  24.111  1.00  0.00    -0.502 OA
ATOM     29  H   UNL     1      25.711 -30.616  24.456  1.00  0.00     0.293 HD
ENDBRANCH  23  28
ENDBRANCH   1  18
TORSDOF 10
ENDMDL
MODEL 5
REMARK VINA RESULT:    -7.217      2.549      4.615
REMARK INTER + INTRA:         -10.847
REMARK INTER:                 -10.055
REMARK INTRA:                  -0.792
REMARK UNBOUND:                -0.677
REMARK SMILES CO[C@H]1OC(OC(=O)c2cc(O)c(O)c(O)c2)[C@H](O)[C@@H](O)[C@@H]1O
REMARK SMILES IDX 7 1 8 2 6 3 5 4 3 5 22 6 4 7 20 8 18 9 2 10 1 11 23 12 21 14
REMARK SMILES IDX 19 16 9 18 17 19 10 20 15 21 11 22 13 23 16 24 12 26 14 28
REMARK H PARENT 23 13 21 15 19 17 16 25 12 27 14 29
ROOT
ATOM      1  C   UNL     1      23.766 -35.827  22.306  1.00  0.00     0.340 C 
ATOM      2  O   UNL     1      22.991 -36.454  23.011  1.00  0.00    -0.246 OA
ENDROOT
BRANCH   1   3
ATOM      3  O   UNL     1      24.107 -36.108  21.026  1.00  0.00    -0.429 OA
BRANCH   3   4
ATOM      4  C   UNL     1      23.011 -36.287  20.115  1.00  0.00     0.345 C 
ATOM      5  C   UNL     1      24.406 -35.882  18.224  1.00  0.00     0.285 C 
ATOM      6  C   UNL     1      24.317 -37.348  17.763  1.00  0.00     0.202 C 
ATOM      7  O   UNL     1      23.231 -35.501  18.932  1.00  0.00    -0.308 OA
ATOM      8  C   UNL     1      24.077 -38.254  18.965  1.00  0.00     0.183 C 
ATOM      9  C   UNL     1      22.853 -37.778  19.748  1.00  0.00     0.215 C 
BRANCH   5  10
ATOM     10  O   UNL     1      24.560 -35.094  17.034  1.00  0.00    -0.353 OA
ATOM     11  C   UNL     1      23.422 -34.274  16.794  1.00  0.00     0.198 C 
ENDBRANCH   5  10
BRANCH   6  12
ATOM     12  O   UNL     1      25.520 -37.766  17.099  1.00  0.00    -0.385 OA
ATOM     13  H   UNL     1      25.408 -38.727  16.949  1.00  0.00     0.211 HD
ENDBRANCH   6  12
BRANCH   8  14
ATOM     14  O   UNL     1      23.857 -39.607  18.529  1.00  0.00    -0.387 OA
ATOM     15  H   UNL     1      24.597 -39.798  17.916  1.00  0.00     0.211 HD
ENDBRANCH   8  14
BRANCH   9  16
ATOM     16  O   UNL     1      22.686 -38.613  20.899  1.00  0.00    -0.384 OA
ATOM     17  H   UNL     1      22.924 -38.048  21.662  1.00  0.00     0.211 HD
ENDBRANCH   9  16
ENDBRANCH   3   4
ENDBRANCH   1   3
BRANCH   1  18
ATOM     18  C   UNL     1      24.472 -34.605  22.774  1.00  0.00     0.067 A 
ATOM     19  C   UNL     1      24.064 -34.042  23.998  1.00  0.00     0.066 A 
ATOM     20  C   UNL     1      25.509 -34.010  22.037  1.00  0.00     0.066 A 
ATOM     21  C   UNL     1      24.696 -32.897  24.472  1.00  0.00     0.162 A 
ATOM     22  C   UNL     1      26.124 -32.867  22.530  1.00  0.00     0.162 A 
ATOM     23  C   UNL     1      25.722 -32.313  23.739  1.00  0.00     0.200 A 
BRANCH  21  24
ATOM     24  O   UNL     1      24.343 -32.309  25.654  1.00  0.00    -0.504 OA
ATOM     25  H   UNL     1      25.067 -31.718  25.931  1.00  0.00     0.293 HD
ENDBRANCH  21  24
BRANCH  22  26
ATOM     26  O   UNL     1      27.130 -32.288  21.814  1.00  0.00    -0.504 OA
ATOM     27  H   UNL     1      26.779 -31.410  21.557  1.00  0.00     0.293 HD
ENDBRANCH  22  26
BRANCH  23  28
ATOM     28  O   UNL     1      26.350 -31.186  24.195  1.00  0.00    -0.502 OA
ATOM     29  H   UNL     1      27.199 -31.167  23.706  1.00  0.00     0.293 HD
ENDBRANCH  23  28
ENDBRANCH   1  18
TORSDOF 10
ENDMDL
MODEL 6
REMARK VINA RESULT:    -7.072      2.531      6.206
REMARK INTER + INTRA:         -10.644
REMARK INTER:                  -9.838
REMARK INTRA:                  -0.806
REMARK UNBOUND:                -0.677
REMARK SMILES CO[C@H]1OC(OC(=O)c2cc(O)c(O)c(O)c2)[C@H](O)[C@@H](O)[C@@H]1O
REMARK SMILES IDX 7 1 8 2 6 3 5 4 3 5 22 6 4 7 20 8 18 9 2 10 1 11 23 12 21 14
REMARK SMILES IDX 19 16 9 18 17 19 10 20 15 21 11 22 13 23 16 24 12 26 14 28
REMARK H PARENT 23 13 21 15 19 17 16 25 12 27 14 29
ROOT
ATOM      1  C   UNL     1      23.029 -36.864  19.989  1.00  0.00     0.340 C 
ATOM      2  O   UNL     1      22.640 -38.020  20.019  1.00  0.00    -0.246 OA
ENDROOT
BRANCH   1   3
ATOM      3  O   UNL     1      23.070 -35.994  21.025  1.00  0.00    -0.429 OA
BRANCH   3   4
ATOM      4  C   UNL     1      24.014 -36.304  22.062  1.00  0.00     0.345 C 
ATOM      5  C   UNL     1      25.372 -34.424  21.507  1.00  0.00     0.285 C 
ATOM      6  C   UNL     1      25.006 -33.694  22.811  1.00  0.00     0.202 C 
ATOM      7  O   UNL     1      25.320 -35.836  21.686  1.00  0.00    -0.308 OA
ATOM      8  C   UNL     1      23.629 -34.141  23.286  1.00  0.00     0.183 C 
ATOM      9  C   UNL     1      23.578 -35.665  23.398  1.00  0.00     0.215 C 
BRANCH   5  10
ATOM     10  O   UNL     1      26.703 -34.004  21.169  1.00  0.00    -0.353 OA
ATOM     11  C   UNL     1      27.341 -34.926  20.294  1.00  0.00     0.198 C 
ENDBRANCH   5  10
BRANCH   6  12
ATOM     12  O   UNL     1      24.996 -32.268  22.633  1.00  0.00    -0.385 OA
ATOM     13  H   UNL     1      25.727 -32.083  22.009  1.00  0.00     0.211 HD
ENDBRANCH   6  12
BRANCH   8  14
ATOM     14  O   UNL     1      23.337 -33.567  24.573  1.00  0.00    -0.387 OA
ATOM     15  H   UNL     1      24.211 -33.438  24.996  1.00  0.00     0.211 HD
ENDBRANCH   8  14
BRANCH   9  16
ATOM     16  O   UNL     1      22.259 -36.058  23.791  1.00  0.00    -0.384 OA
ATOM     17  H   UNL     1      21.716 -35.248  23.713  1.00  0.00     0.211 HD
ENDBRANCH   9  16
ENDBRANCH   3   4
ENDBRANCH   1   3
BRANCH   1  18
ATOM     18  C   UNL     1      23.544 -36.219  18.751  1.00  0.00     0.067 A 
ATOM     19  C   UNL     1      24.823 -36.597  18.301  1.00  0.00     0.066 A 
ATOM     20  C   UNL     1      22.803 -35.262  18.041  1.00  0.00     0.066 A 
ATOM     21  C   UNL     1      25.344 -36.018  17.149  1.00  0.00     0.162 A 
ATOM     22  C   UNL     1      23.345 -34.696  16.894  1.00  0.00     0.162 A 
ATOM     23  C   UNL     1      24.606 -35.070  16.449  1.00  0.00     0.200 A 
BRANCH  21  24
ATOM     24  O   UNL     1      26.578 -36.348  16.664  1.00  0.00    -0.504 OA
ATOM     25  H   UNL     1      26.718 -35.868  15.827  1.00  0.00     0.293 HD
ENDBRANCH  21  24
BRANCH  22  26
ATOM     26  O   UNL     1      22.626 -33.764  16.205  1.00  0.00    -0.504 OA
ATOM     27  H   UNL     1      22.381 -34.208  15.368  1.00  0.00     0.293 HD
ENDBRANCH  22  26
BRANCH  23  28
ATOM     28  O   UNL     1      25.110 -34.493  15.315  1.00  0.00    -0.502 OA
ATOM     29  H   UNL     1      24.875 -33.546  15.401  1.00  0.00     0.293 HD
ENDBRANCH  23  28
ENDBRANCH   1  18
TORSDOF 10
ENDMDL
MODEL 7
REMARK VINA RESULT:    -6.974      3.034      6.327
REMARK INTER + INTRA:         -10.505
REMARK INTER:                  -9.697
REMARK INTRA:                  -0.808
REMARK UNBOUND:                -0.677
REMARK SMILES CO[C@H]1OC(OC(=O)c2cc(O)c(O)c(O)c2)[C@H](O)[C@@H](O)[C@@H]1O
REMARK SMILES IDX 7 1 8 2 6 3 5 4 3 5 22 6 4 7 20 8 18 9 2 10 1 11 23 12 21 14
REMARK SMILES IDX 19 16 9 18 17 19 10 20 15 21 11 22 13 23 16 24 12 26 14 28
REMARK H PARENT 23 13 21 15 19 17 16 25 12 27 14 29
ROOT
ATOM      1  C   UNL     1      23.713 -36.043  17.740  1.00  0.00     0.340 C 
ATOM      2  O   UNL     1      23.429 -37.189  17.430  1.00  0.00    -0.246 OA
ENDROOT
BRANCH   1   3
ATOM      3  O   UNL     1      23.737 -35.522  18.989  1.00  0.00    -0.429 OA
BRANCH   3   4
ATOM      4  C   UNL     1      24.825 -35.952  19.822  1.00  0.00     0.345 C 
ATOM      5  C   UNL     1      24.825 -33.896  21.030  1.00  0.00     0.285 C 
ATOM      6  C   UNL     1      24.297 -34.572  22.307  1.00  0.00     0.202 C 
ATOM      7  O   UNL     1      25.588 -34.812  20.251  1.00  0.00    -0.308 OA
ATOM      8  C   UNL     1      23.477 -35.803  21.940  1.00  0.00     0.183 C 
ATOM      9  C   UNL     1      24.294 -36.733  21.043  1.00  0.00     0.215 C 
BRANCH   5  10
ATOM     10  O   UNL     1      25.641 -32.796  21.463  1.00  0.00    -0.353 OA
ATOM     11  C   UNL     1      26.812 -33.241  22.136  1.00  0.00     0.198 C 
ENDBRANCH   5  10
BRANCH   6  12
ATOM     12  O   UNL     1      23.475 -33.679  23.077  1.00  0.00    -0.385 OA
ATOM     13  H   UNL     1      22.900 -33.233  22.422  1.00  0.00     0.211 HD
ENDBRANCH   6  12
BRANCH   8  14
ATOM     14  O   UNL     1      23.094 -36.517  23.129  1.00  0.00    -0.387 OA
ATOM     15  H   UNL     1      22.115 -36.476  23.144  1.00  0.00     0.211 HD
ENDBRANCH   8  14
BRANCH   9  16
ATOM     16  O   UNL     1      23.481 -37.850  20.669  1.00  0.00    -0.384 OA
ATOM     17  H   UNL     1      23.681 -38.007  19.724  1.00  0.00     0.211 HD
ENDBRANCH   9  16
ENDBRANCH   3   4
ENDBRANCH   1   3
BRANCH   1  18
ATOM     18  C   UNL     1      24.098 -35.011  16.740  1.00  0.00     0.067 A 
ATOM     19  C   UNL     1      23.312 -33.847  16.665  1.00  0.00     0.066 A 
ATOM     20  C   UNL     1      25.201 -35.170  15.886  1.00  0.00     0.066 A 
ATOM     21  C   UNL     1      23.635 -32.857  15.744  1.00  0.00     0.162 A 
ATOM     22  C   UNL     1      25.504 -34.169  14.973  1.00  0.00     0.162 A 
ATOM     23  C   UNL     1      24.728 -33.019  14.900  1.00  0.00     0.200 A 
BRANCH  21  24
ATOM     24  O   UNL     1      22.909 -31.705  15.629  1.00  0.00    -0.504 OA
ATOM     25  H   UNL     1      23.485 -30.953  15.858  1.00  0.00     0.293 HD
ENDBRANCH  21  24
BRANCH  22  26
ATOM     26  O   UNL     1      26.574 -34.325  14.141  1.00  0.00    -0.504 OA
ATOM     27  H   UNL     1      27.356 -34.225  14.722  1.00  0.00     0.293 HD
ENDBRANCH  22  26
BRANCH  23  28
ATOM     28  O   UNL     1      25.055 -32.053  13.989  1.00  0.00    -0.502 OA
ATOM     29  H   UNL     1      24.409 -32.177  13.262  1.00  0.00     0.293 HD
ENDBRANCH  23  28
ENDBRANCH   1  18
TORSDOF 10
ENDMDL
MODEL 8
REMARK VINA RESULT:    -6.760      1.699      2.773
REMARK INTER + INTRA:         -10.204
REMARK INTER:                  -9.505
REMARK INTRA:                  -0.698
REMARK UNBOUND:                -0.677
REMARK SMILES CO[C@H]1OC(OC(=O)c2cc(O)c(O)c(O)c2)[C@H](O)[C@@H](O)[C@@H]1O
REMARK SMILES IDX 7 1 8 2 6 3 5 4 3 5 22 6 4 7 20 8 18 9 2 10 1 11 23 12 21 14
REMARK SMILES IDX 19 16 9 18 17 19 10 20 15 21 11 22 13 23 16 24 12 26 14 28
REMARK H PARENT 23 13 21 15 19 17 16 25 12 27 14 29
ROOT
ATOM      1  C   UNL     1      24.012 -35.186  19.519  1.00  0.00     0.340 C 
ATOM      2  O   UNL     1      23.413 -34.528  18.684  1.00  0.00    -0.246 OA
ENDROOT
BRANCH   1   3
ATOM      3  O   UNL     1      24.566 -36.408  19.344  1.00  0.00    -0.429 OA
BRANCH   3   4
ATOM      4  C   UNL     1      25.325 -36.581  18.137  1.00  0.00     0.345 C 
ATOM      5  C   UNL     1      26.965 -37.903  19.254  1.00  0.00     0.285 C 
ATOM      6  C   UNL     1      26.530 -39.182  18.517  1.00  0.00     0.202 C 
ATOM      7  O   UNL     1      26.716 -36.749  18.457  1.00  0.00    -0.308 OA
ATOM      8  C   UNL     1      25.058 -39.082  18.133  1.00  0.00     0.183 C 
ATOM      9  C   UNL     1      24.805 -37.798  17.342  1.00  0.00     0.215 C 
BRANCH   5  10
ATOM     10  O   UNL     1      28.370 -38.046  19.515  1.00  0.00    -0.353 OA
ATOM     11  C   UNL     1      29.117 -36.953  18.996  1.00  0.00     0.198 C 
ENDBRANCH   5  10
BRANCH   6  12
ATOM     12  O   UNL     1      26.719 -40.351  19.331  1.00  0.00    -0.385 OA
ATOM     13  H   UNL     1      25.886 -40.449  19.835  1.00  0.00     0.211 HD
ENDBRANCH   6  12
BRANCH   8  14
ATOM     14  O   UNL     1      24.678 -40.211  17.327  1.00  0.00    -0.387 OA
ATOM     15  H   UNL     1      24.270 -40.844  17.954  1.00  0.00     0.211 HD
ENDBRANCH   8  14
BRANCH   9  16
ATOM     16  O   UNL     1      23.408 -37.704  17.044  1.00  0.00    -0.384 OA
ATOM     17  H   UNL     1      23.288 -36.810  16.664  1.00  0.00     0.211 HD
ENDBRANCH   9  16
ENDBRANCH   3   4
ENDBRANCH   1   3
BRANCH   1  18
ATOM     18  C   UNL     1      24.234 -34.711  20.911  1.00  0.00     0.067 A 
ATOM     19  C   UNL     1      23.780 -35.529  21.962  1.00  0.00     0.066 A 
ATOM     20  C   UNL     1      24.868 -33.491  21.194  1.00  0.00     0.066 A 
ATOM     21  C   UNL     1      23.965 -35.122  23.279  1.00  0.00     0.162 A 
ATOM     22  C   UNL     1      25.041 -33.105  22.517  1.00  0.00     0.162 A 
ATOM     23  C   UNL     1      24.594 -33.913  23.553  1.00  0.00     0.200 A 
BRANCH  21  24
ATOM     24  O   UNL     1      23.547 -35.877  24.338  1.00  0.00    -0.504 OA
ATOM     25  H   UNL     1      23.490 -35.301  25.123  1.00  0.00     0.293 HD
ENDBRANCH  21  24
BRANCH  22  26
ATOM     26  O   UNL     1      25.655 -31.918  22.791  1.00  0.00    -0.504 OA
ATOM     27  H   UNL     1      26.453 -31.914  22.225  1.00  0.00     0.293 HD
ENDBRANCH  22  26
BRANCH  23  28
ATOM     28  O   UNL     1      24.780 -33.502  24.845  1.00  0.00    -0.502 OA
ATOM     29  H   UNL     1      25.409 -32.754  24.773  1.00  0.00     0.293 HD
ENDBRANCH  23  28
ENDBRANCH   1  18
TORSDOF 10
ENDMDL
MODEL 9
REMARK VINA RESULT:    -6.689      2.633      4.840
REMARK INTER + INTRA:         -10.104
REMARK INTER:                  -9.387
REMARK INTRA:                  -0.716
REMARK UNBOUND:                -0.677
REMARK SMILES CO[C@H]1OC(OC(=O)c2cc(O)c(O)c(O)c2)[C@H](O)[C@@H](O)[C@@H]1O
REMARK SMILES IDX 7 1 8 2 6 3 5 4 3 5 22 6 4 7 20 8 18 9 2 10 1 11 23 12 21 14
REMARK SMILES IDX 19 16 9 18 17 19 10 20 15 21 11 22 13 23 16 24 12 26 14 28
REMARK H PARENT 23 13 21 15 19 17 16 25 12 27 14 29
ROOT
ATOM      1  C   UNL     1      24.370 -35.614  21.798  1.00  0.00     0.340 C 
ATOM      2  O   UNL     1      23.616 -36.344  22.420  1.00  0.00    -0.246 OA
ENDROOT
BRANCH   1   3
ATOM      3  O   UNL     1      24.763 -35.759  20.511  1.00  0.00    -0.429 OA
BRANCH   3   4
ATOM      4  C   UNL     1      25.388 -37.011  20.188  1.00  0.00     0.345 C 
ATOM      5  C   UNL     1      24.151 -37.204  18.159  1.00  0.00     0.285 C 
ATOM      6  C   UNL     1      25.405 -36.979  17.297  1.00  0.00     0.202 C 
ATOM      7  O   UNL     1      24.492 -37.813  19.400  1.00  0.00    -0.308 OA
ATOM      8  C   UNL     1      26.417 -36.137  18.065  1.00  0.00     0.183 C 
ATOM      9  C   UNL     1      26.708 -36.774  19.424  1.00  0.00     0.215 C 
BRANCH   5  10
ATOM     10  O   UNL     1      23.285 -38.059  17.396  1.00  0.00    -0.353 OA
ATOM     11  C   UNL     1      23.783 -39.390  17.328  1.00  0.00     0.198 C 
ENDBRANCH   5  10
BRANCH   6  12
ATOM     12  O   UNL     1      25.086 -36.312  16.065  1.00  0.00    -0.385 OA
ATOM     13  H   UNL     1      25.934 -35.937  15.750  1.00  0.00     0.211 HD
ENDBRANCH   6  12
BRANCH   8  14
ATOM     14  O   UNL     1      27.644 -36.035  17.322  1.00  0.00    -0.387 OA
ATOM     15  H   UNL     1      27.599 -35.164  16.878  1.00  0.00     0.211 HD
ENDBRANCH   8  14
BRANCH   9  16
ATOM     16  O   UNL     1      27.617 -35.934  20.145  1.00  0.00    -0.384 OA
ATOM     17  H   UNL     1      27.141 -35.686  20.963  1.00  0.00     0.211 HD
ENDBRANCH   9  16
ENDBRANCH   3   4
ENDBRANCH   1   3
BRANCH   1  18
ATOM     18  C   UNL     1      24.988 -34.399  22.394  1.00  0.00     0.067 A 
ATOM     19  C   UNL     1      24.735 -34.136  23.753  1.00  0.00     0.066 A 
ATOM     20  C   UNL     1      25.794 -33.525  21.647  1.00  0.00     0.066 A 
ATOM     21  C   UNL     1      25.291 -33.009  24.350  1.00  0.00     0.162 A 
ATOM     22  C   UNL     1      26.337 -32.406  22.264  1.00  0.00     0.162 A 
ATOM     23  C   UNL     1      26.089 -32.148  23.606  1.00  0.00     0.200 A 
BRANCH  21  24
ATOM     24  O   UNL     1      25.082 -32.706  25.666  1.00  0.00    -0.504 OA
ATOM     25  H   UNL     1      24.294 -32.135  25.728  1.00  0.00     0.293 HD
ENDBRANCH  21  24
BRANCH  22  26
ATOM     26  O   UNL     1      27.119 -31.556  21.538  1.00  0.00    -0.504 OA
ATOM     27  H   UNL     1      26.587 -31.347  20.743  1.00  0.00     0.293 HD
ENDBRANCH  22  26
BRANCH  23  28
ATOM     28  O   UNL     1      26.640 -31.036  24.182  1.00  0.00    -0.502 OA
ATOM     29  H   UNL     1      27.410 -31.378  24.682  1.00  0.00     0.293 HD
ENDBRANCH  23  28
ENDBRANCH   1  18
TORSDOF 10
ENDMDL
