MODEL 1
REMARK VINA RESULT:    -7.345      0.000      0.000
REMARK INTER + INTRA:         -11.049
REMARK INTER:                 -10.350
REMARK INTRA:                  -0.699
REMARK UNBOUND:                -0.699
REMARK SMILES CO[C@H]1OC(OC(=O)c2cc(O)c(O)c(O)c2)[C@H](O)[C@@H](O)[C@@H]1O
REMARK SMILES IDX 7 1 8 2 6 3 5 4 3 5 22 6 4 7 20 8 18 9 2 10 1 11 23 12 21 14
REMARK SMILES IDX 19 16 9 18 17 19 10 20 15 21 11 22 13 23 16 24 12 26 14 28
REMARK H PARENT 23 13 21 15 19 17 16 25 12 27 14 29
ROOT
ATOM      1  C   UNL     1      22.831 -36.546  18.199  1.00  0.00     0.340 C 
ATOM      2  O   UNL     1      22.244 -35.757  17.477  1.00  0.00    -0.246 OA
ENDROOT
BRANCH   1   3
ATOM      3  O   UNL     1      23.501 -37.657  17.813  1.00  0.00    -0.429 OA
BRANCH   3   4
ATOM      4  C   UNL     1      24.739 -37.428  17.121  1.00  0.00     0.345 C 
ATOM      5  C   UNL     1      26.022 -38.106  19.013  1.00  0.00     0.285 C 
ATOM      6  C   UNL     1      26.497 -39.390  18.312  1.00  0.00     0.202 C 
ATOM      7  O   UNL     1      25.765 -37.076  18.064  1.00  0.00    -0.308 OA
ATOM      8  C   UNL     1      25.463 -39.831  17.283  1.00  0.00     0.183 C 
ATOM      9  C   UNL     1      25.151 -38.684  16.323  1.00  0.00     0.215 C 
BRANCH   5  10
ATOM     10  O   UNL     1      27.077 -37.720  19.907  1.00  0.00    -0.353 OA
ATOM     11  C   UNL     1      27.963 -36.784  19.305  1.00  0.00     0.198 C 
ENDBRANCH   5  10
BRANCH   6  12
ATOM     12  O   UNL     1      26.705 -40.458  19.250  1.00  0.00    -0.385 OA
ATOM     13  H   UNL     1      27.027 -41.211  18.714  1.00  0.00     0.211 HD
ENDBRANCH   6  12
BRANCH   8  14
ATOM     14  O   UNL     1      25.960 -40.952  16.530  1.00  0.00    -0.387 OA
ATOM     15  H   UNL     1      26.033 -40.624  15.609  1.00  0.00     0.211 HD
ENDBRANCH   8  14
BRANCH   9  16
ATOM     16  O   UNL     1      24.137 -39.109  15.405  1.00  0.00    -0.384 OA
ATOM     17  H   UNL     1      23.290 -38.954  15.870  1.00  0.00     0.211 HD
ENDBRANCH   9  16
ENDBRANCH   3   4
ENDBRANCH   1   3
BRANCH   1  18
ATOM     18  C   UNL     1      22.901 -36.386  19.677  1.00  0.00     0.067 A 
ATOM     19  C   UNL     1      22.085 -37.219  20.464  1.00  0.00     0.066 A 
ATOM     20  C   UNL     1      23.740 -35.441  20.288  1.00  0.00     0.066 A 
ATOM     21  C   UNL     1      22.118 -37.102  21.850  1.00  0.00     0.162 A 
ATOM     22  C   UNL     1      23.755 -35.341  21.674  1.00  0.00     0.162 A 
ATOM     23  C   UNL     1      22.950 -36.165  22.451  1.00  0.00     0.200 A 
BRANCH  21  24
ATOM     24  O   UNL     1      21.350 -37.885  22.664  1.00  0.00    -0.504 OA
ATOM     25  H   UNL     1      20.452 -37.934  22.287  1.00  0.00     0.293 HD
ENDBRANCH  21  24
BRANCH  22  26
ATOM     26  O   UNL     1      24.568 -34.421  22.268  1.00  0.00    -0.504 OA
ATOM     27  H   UNL     1      24.474 -33.616  21.720  1.00  0.00     0.293 HD
ENDBRANCH  22  26
BRANCH  23  28
ATOM     28  O   UNL     1      22.990 -36.039  23.813  1.00  0.00    -0.502 OA
ATOM     29  H   UNL     1      22.049 -36.066  24.085  1.00  0.00     0.293 HD
ENDBRANCH  23  28
ENDBRANCH   1  18
TORSDOF 10
ENDMDL
MODEL 2
REMARK VINA RESULT:    -7.304      2.807      5.060
REMARK INTER + INTRA:         -10.992
REMARK INTER:                 -10.175
REMARK INTRA:                  -0.817
REMARK UNBOUND:                -0.699
REMARK SMILES CO[C@H]1OC(OC(=O)c2cc(O)c(O)c(O)c2)[C@H](O)[C@@H](O)[C@@H]1O
REMARK SMILES IDX 7 1 8 2 6 3 5 4 3 5 22 6 4 7 20 8 18 9 2 10 1 11 23 12 21 14
REMARK SMILES IDX 19 16 9 18 17 19 10 20 15 21 11 22 13 23 16 24 12 26 14 28
REMARK H PARENT 23 13 21 15 19 17 16 25 12 27 14 29
ROOT
ATOM      1  C   UNL     1      26.488 -34.632  21.125  1.00  0.00     0.340 C 
ATOM      2  O   UNL     1      27.666 -34.764  20.834  1.00  0.00    -0.246 OA
ENDROOT
BRANCH   1   3
ATOM      3  O   UNL     1      25.421 -34.995  20.374  1.00  0.00    -0.429 OA
BRANCH   3   4
ATOM      4  C   UNL     1      25.348 -36.387  20.027  1.00  0.00     0.345 C 
ATOM      5  C   UNL     1      22.977 -36.291  19.789  1.00  0.00     0.285 C 
ATOM      6  C   UNL     1      23.058 -36.475  18.264  1.00  0.00     0.202 C 
ATOM      7  O   UNL     1      24.078 -36.922  20.435  1.00  0.00    -0.308 OA
ATOM      8  C   UNL     1      24.387 -35.936  17.747  1.00  0.00     0.183 C 
ATOM      9  C   UNL     1      25.548 -36.576  18.508  1.00  0.00     0.215 C 
BRANCH   5  10
ATOM     10  O   UNL     1      21.737 -36.885  20.203  1.00  0.00    -0.353 OA
ATOM     11  C   UNL     1      21.927 -37.826  21.253  1.00  0.00     0.198 C 
ENDBRANCH   5  10
BRANCH   6  12
ATOM     12  O   UNL     1      21.987 -35.794  17.592  1.00  0.00    -0.385 OA
ATOM     13  H   UNL     1      21.447 -35.399  18.307  1.00  0.00     0.211 HD
ENDBRANCH   6  12
BRANCH   8  14
ATOM     14  O   UNL     1      24.529 -36.227  16.345  1.00  0.00    -0.387 OA
ATOM     15  H   UNL     1      24.833 -37.157  16.310  1.00  0.00     0.211 HD
ENDBRANCH   8  14
BRANCH   9  16
ATOM     16  O   UNL     1      26.777 -36.010  18.042  1.00  0.00    -0.384 OA
ATOM     17  H   UNL     1      27.228 -36.735  17.565  1.00  0.00     0.211 HD
ENDBRANCH   9  16
ENDBRANCH   3   4
ENDBRANCH   1   3
BRANCH   1  18
ATOM     18  C   UNL     1      26.037 -34.034  22.410  1.00  0.00     0.067 A 
ATOM     19  C   UNL     1      27.014 -33.450  23.238  1.00  0.00     0.066 A 
ATOM     20  C   UNL     1      24.691 -34.042  22.809  1.00  0.00     0.066 A 
ATOM     21  C   UNL     1      26.638 -32.881  24.449  1.00  0.00     0.162 A 
ATOM     22  C   UNL     1      24.339 -33.469  24.024  1.00  0.00     0.162 A 
ATOM     23  C   UNL     1      25.304 -32.891  24.840  1.00  0.00     0.200 A 
BRANCH  21  24
ATOM     24  O   UNL     1      27.543 -32.299  25.291  1.00  0.00    -0.504 OA
ATOM     25  H   UNL     1      27.245 -32.441  26.209  1.00  0.00     0.293 HD
ENDBRANCH  21  24
BRANCH  22  26
ATOM     26  O   UNL     1      23.032 -33.478  24.413  1.00  0.00    -0.504 OA
ATOM     27  H   UNL     1      22.583 -34.055  23.761  1.00  0.00     0.293 HD
ENDBRANCH  22  26
BRANCH  23  28
ATOM     28  O   UNL     1      24.922 -32.335  26.030  1.00  0.00    -0.502 OA
ATOM     29  H   UNL     1      24.571 -33.089  26.548  1.00  0.00     0.293 HD
ENDBRANCH  23  28
ENDBRANCH   1  18
TORSDOF 10
ENDMDL
MODEL 3
REMARK VINA RESULT:    -7.221      2.532      4.592
REMARK INTER + INTRA:         -10.875
REMARK INTER:                 -10.093
REMARK INTRA:                  -0.783
REMARK UNBOUND:                -0.699
REMARK SMILES CO[C@H]1OC(OC(=O)c2cc(O)c(O)c(O)c2)[C@H](O)[C@@H](O)[C@@H]1O
REMARK SMILES IDX 7 1 8 2 6 3 5 4 3 5 22 6 4 7 20 8 18 9 2 10 1 11 23 12 21 14
REMARK SMILES IDX 19 16 9 18 17 19 10 20 15 21 11 22 13 23 16 24 12 26 14 28
REMARK H PARENT 23 13 21 15 19 17 16 25 12 27 14 29
ROOT
ATOM      1  C   UNL     1      23.742 -35.782  22.283  1.00  0.00     0.340 C 
ATOM      2  O   UNL     1      22.959 -36.440  22.948  1.00  0.00    -0.246 OA
ENDROOT
BRANCH   1   3
ATOM      3  O   UNL     1      24.113 -36.013  21.002  1.00  0.00    -0.429 OA
BRANCH   3   4
ATOM      4  C   UNL     1      23.040 -36.242  20.075  1.00  0.00     0.345 C 
ATOM      5  C   UNL     1      24.441 -35.772  18.204  1.00  0.00     0.285 C 
ATOM      6  C   UNL     1      24.427 -37.240  17.742  1.00  0.00     0.202 C 
ATOM      7  O   UNL     1      23.239 -35.446  18.895  1.00  0.00    -0.308 OA
ATOM      8  C   UNL     1      24.211 -38.157  18.940  1.00  0.00     0.183 C 
ATOM      9  C   UNL     1      22.956 -37.739  19.706  1.00  0.00     0.215 C 
BRANCH   5  10
ATOM     10  O   UNL     1      24.575 -34.976  17.016  1.00  0.00    -0.353 OA
ATOM     11  C   UNL     1      23.390 -34.241  16.738  1.00  0.00     0.198 C 
ENDBRANCH   5  10
BRANCH   6  12
ATOM     12  O   UNL     1      25.657 -37.602  17.095  1.00  0.00    -0.385 OA
ATOM     13  H   UNL     1      26.323 -36.974  17.442  1.00  0.00     0.211 HD
ENDBRANCH   6  12
BRANCH   8  14
ATOM     14  O   UNL     1      24.060 -39.519  18.501  1.00  0.00    -0.387 OA
ATOM     15  H   UNL     1      24.383 -39.523  17.576  1.00  0.00     0.211 HD
ENDBRANCH   8  14
BRANCH   9  16
ATOM     16  O   UNL     1      22.811 -38.581  20.855  1.00  0.00    -0.384 OA
ATOM     17  H   UNL     1      23.183 -38.066  21.598  1.00  0.00     0.211 HD
ENDBRANCH   9  16
ENDBRANCH   3   4
ENDBRANCH   1   3
BRANCH   1  18
ATOM     18  C   UNL     1      24.427 -34.571  22.810  1.00  0.00     0.067 A 
ATOM     19  C   UNL     1      25.468 -34.021  22.040  1.00  0.00     0.066 A 
ATOM     20  C   UNL     1      24.069 -33.981  24.033  1.00  0.00     0.066 A 
ATOM     21  C   UNL     1      26.137 -32.890  22.496  1.00  0.00     0.162 A 
ATOM     22  C   UNL     1      24.752 -32.853  24.469  1.00  0.00     0.162 A 
ATOM     23  C   UNL     1      25.778 -32.309  23.707  1.00  0.00     0.200 A 
BRANCH  21  24
ATOM     24  O   UNL     1      27.153 -32.312  21.789  1.00  0.00    -0.504 OA
ATOM     25  H   UNL     1      27.360 -31.451  22.197  1.00  0.00     0.293 HD
ENDBRANCH  21  24
BRANCH  22  26
ATOM     26  O   UNL     1      24.406 -32.281  25.658  1.00  0.00    -0.504 OA
ATOM     27  H   UNL     1      24.942 -31.462  25.705  1.00  0.00     0.293 HD
ENDBRANCH  22  26
BRANCH  23  28
ATOM     28  O   UNL     1      26.430 -31.197  24.167  1.00  0.00    -0.502 OA
ATOM     29  H   UNL     1      27.359 -31.489  24.276  1.00  0.00     0.293 HD
ENDBRANCH  23  28
ENDBRANCH   1  18
TORSDOF 10
ENDMDL
MODEL 4
REMARK VINA RESULT:    -7.208      2.522      4.429
REMARK INTER + INTRA:         -10.857
REMARK INTER:                 -10.064
REMARK INTRA:                  -0.793
REMARK UNBOUND:                -0.699
REMARK SMILES CO[C@H]1OC(OC(=O)c2cc(O)c(O)c(O)c2)[C@H](O)[C@@H](O)[C@@H]1O
REMARK SMILES IDX 7 1 8 2 6 3 5 4 3 5 22 6 4 7 20 8 18 9 2 10 1 11 23 12 21 14
REMARK SMILES IDX 19 16 9 18 17 19 10 20 15 21 11 22 13 23 16 24 12 26 14 28
REMARK H PARENT 23 13 21 15 19 17 16 25 12 27 14 29
ROOT
ATOM      1  C   UNL     1      23.756 -35.825  22.283  1.00  0.00     0.340 C 
ATOM      2  O   UNL     1      22.974 -36.448  22.982  1.00  0.00    -0.246 OA
ENDROOT
BRANCH   1   3
ATOM      3  O   UNL     1      24.099 -36.102  21.003  1.00  0.00    -0.429 OA
BRANCH   3   4
ATOM      4  C   UNL     1      23.005 -36.276  20.089  1.00  0.00     0.345 C 
ATOM      5  C   UNL     1      24.402 -35.855  18.203  1.00  0.00     0.285 C 
ATOM      6  C   UNL     1      24.316 -37.317  17.731  1.00  0.00     0.202 C 
ATOM      7  O   UNL     1      23.225 -35.481  18.912  1.00  0.00    -0.308 OA
ATOM      8  C   UNL     1      24.075 -38.233  18.926  1.00  0.00     0.183 C 
ATOM      9  C   UNL     1      22.850 -37.764  19.711  1.00  0.00     0.215 C 
BRANCH   5  10
ATOM     10  O   UNL     1      24.556 -35.058  17.019  1.00  0.00    -0.353 OA
ATOM     11  C   UNL     1      23.417 -34.240  16.781  1.00  0.00     0.198 C 
ENDBRANCH   5  10
BRANCH   6  12
ATOM     12  O   UNL     1      25.520 -37.730  17.065  1.00  0.00    -0.385 OA
ATOM     13  H   UNL     1      25.232 -38.033  16.181  1.00  0.00     0.211 HD
ENDBRANCH   6  12
BRANCH   8  14
ATOM     14  O   UNL     1      23.858 -39.583  18.480  1.00  0.00    -0.387 OA
ATOM     15  H   UNL     1      23.656 -39.505  17.525  1.00  0.00     0.211 HD
ENDBRANCH   8  14
BRANCH   9  16
ATOM     16  O   UNL     1      22.681 -38.607  20.856  1.00  0.00    -0.384 OA
ATOM     17  H   UNL     1      23.135 -38.140  21.586  1.00  0.00     0.211 HD
ENDBRANCH   9  16
ENDBRANCH   3   4
ENDBRANCH   1   3
BRANCH   1  18
ATOM     18  C   UNL     1      24.470 -34.610  22.760  1.00  0.00     0.067 A 
ATOM     19  C   UNL     1      24.063 -34.050  23.984  1.00  0.00     0.066 A 
ATOM     20  C   UNL     1      25.514 -34.020  22.030  1.00  0.00     0.066 A 
ATOM     21  C   UNL     1      24.702 -32.913  24.466  1.00  0.00     0.162 A 
ATOM     22  C   UNL     1      26.137 -32.884  22.530  1.00  0.00     0.162 A 
ATOM     23  C   UNL     1      25.735 -32.333  23.740  1.00  0.00     0.200 A 
BRANCH  21  24
ATOM     24  O   UNL     1      24.350 -32.328  25.650  1.00  0.00    -0.504 OA
ATOM     25  H   UNL     1      24.009 -31.434  25.462  1.00  0.00     0.293 HD
ENDBRANCH  21  24
BRANCH  22  26
ATOM     26  O   UNL     1      27.150 -32.310  21.820  1.00  0.00    -0.504 OA
ATOM     27  H   UNL     1      27.293 -32.911  21.060  1.00  0.00     0.293 HD
ENDBRANCH  22  26
BRANCH  23  28
ATOM     28  O   UNL     1      26.370 -31.213  24.204  1.00  0.00    -0.502 OA
ATOM     29  H   UNL     1      25.954 -30.476  23.710  1.00  0.00     0.293 HD
ENDBRANCH  23  28
ENDBRANCH   1  18
TORSDOF 10
ENDMDL
MODEL 5
REMARK VINA RESULT:    -7.062      2.191      6.153
REMARK INTER + INTRA:         -10.651
REMARK INTER:                  -9.861
REMARK INTRA:                  -0.789
REMARK UNBOUND:                -0.699
REMARK SMILES CO[C@H]1OC(OC(=O)c2cc(O)c(O)c(O)c2)[C@H](O)[C@@H](O)[C@@H]1O
REMARK SMILES IDX 7 1 8 2 6 3 5 4 3 5 22 6 4 7 20 8 18 9 2 10 1 11 23 12 21 14
REMARK SMILES IDX 19 16 9 18 17 19 10 20 15 21 11 22 13 23 16 24 12 26 14 28
REMARK H PARENT 23 13 21 15 19 17 16 25 12 27 14 29
ROOT
ATOM      1  C   UNL     1      22.950 -37.235  20.332  1.00  0.00     0.340 C 
ATOM      2  O   UNL     1      22.628 -38.405  20.465  1.00  0.00    -0.246 OA
ENDROOT
BRANCH   1   3
ATOM      3  O   UNL     1      22.951 -36.279  21.290  1.00  0.00    -0.429 OA
BRANCH   3   4
ATOM      4  C   UNL     1      23.946 -36.426  22.315  1.00  0.00     0.345 C 
ATOM      5  C   UNL     1      25.199 -34.576  21.483  1.00  0.00     0.285 C 
ATOM      6  C   UNL     1      24.851 -33.707  22.705  1.00  0.00     0.202 C 
ATOM      7  O   UNL     1      25.215 -35.956  21.831  1.00  0.00    -0.308 OA
ATOM      8  C   UNL     1      23.513 -34.147  23.288  1.00  0.00     0.183 C 
ATOM      9  C   UNL     1      23.533 -35.646  23.582  1.00  0.00     0.215 C 
BRANCH   5  10
ATOM     10  O   UNL     1      26.497 -34.149  21.041  1.00  0.00    -0.353 OA
ATOM     11  C   UNL     1      27.073 -35.072  20.125  1.00  0.00     0.198 C 
ENDBRANCH   5  10
BRANCH   6  12
ATOM     12  O   UNL     1      24.773 -32.315  22.359  1.00  0.00    -0.385 OA
ATOM     13  H   UNL     1      25.295 -32.227  21.535  1.00  0.00     0.211 HD
ENDBRANCH   6  12
BRANCH   8  14
ATOM     14  O   UNL     1      23.246 -33.433  24.508  1.00  0.00    -0.387 OA
ATOM     15  H   UNL     1      23.819 -32.640  24.468  1.00  0.00     0.211 HD
ENDBRANCH   8  14
BRANCH   9  16
ATOM     16  O   UNL     1      22.247 -36.040  24.075  1.00  0.00    -0.384 OA
ATOM     17  H   UNL     1      21.641 -35.943  23.314  1.00  0.00     0.211 HD
ENDBRANCH   9  16
ENDBRANCH   3   4
ENDBRANCH   1   3
BRANCH   1  18
ATOM     18  C   UNL     1      23.418 -36.671  19.037  1.00  0.00     0.067 A 
ATOM     19  C   UNL     1      24.372 -37.406  18.310  1.00  0.00     0.066 A 
ATOM     20  C   UNL     1      22.942 -35.448  18.538  1.00  0.00     0.066 A 
ATOM     21  C   UNL     1      24.838 -36.915  17.095  1.00  0.00     0.162 A 
ATOM     22  C   UNL     1      23.423 -34.977  17.323  1.00  0.00     0.162 A 
ATOM     23  C   UNL     1      24.364 -35.703  16.605  1.00  0.00     0.200 A 
BRANCH  21  24
ATOM     24  O   UNL     1      25.762 -37.586  16.345  1.00  0.00    -0.504 OA
ATOM     25  H   UNL     1      26.580 -37.057  16.318  1.00  0.00     0.293 HD
ENDBRANCH  21  24
BRANCH  22  26
ATOM     26  O   UNL     1      22.963 -33.787  16.839  1.00  0.00    -0.504 OA
ATOM     27  H   UNL     1      22.024 -33.955  16.618  1.00  0.00     0.293 HD
ENDBRANCH  22  26
BRANCH  23  28
ATOM     28  O   UNL     1      24.817 -35.209  15.412  1.00  0.00    -0.502 OA
ATOM     29  H   UNL     1      25.751 -35.500  15.368  1.00  0.00     0.293 HD
ENDBRANCH  23  28
ENDBRANCH   1  18
TORSDOF 10
ENDMDL
MODEL 6
REMARK VINA RESULT:    -6.945      3.041      6.260
REMARK INTER + INTRA:         -10.486
REMARK INTER:                  -9.714
REMARK INTRA:                  -0.772
REMARK UNBOUND:                -0.699
REMARK SMILES CO[C@H]1OC(OC(=O)c2cc(O)c(O)c(O)c2)[C@H](O)[C@@H](O)[C@@H]1O
REMARK SMILES IDX 7 1 8 2 6 3 5 4 3 5 22 6 4 7 20 8 18 9 2 10 1 11 23 12 21 14
REMARK SMILES IDX 19 16 9 18 17 19 10 20 15 21 11 22 13 23 16 24 12 26 14 28
REMARK H PARENT 23 13 21 15 19 17 16 25 12 27 14 29
ROOT
ATOM      1  C   UNL     1      23.790 -36.090  17.678  1.00  0.00     0.340 C 
ATOM      2  O   UNL     1      23.570 -37.241  17.337  1.00  0.00    -0.246 OA
ENDROOT
BRANCH   1   3
ATOM      3  O   UNL     1      23.805 -35.608  18.943  1.00  0.00    -0.429 OA
BRANCH   3   4
ATOM      4  C   UNL     1      24.834 -36.132  19.797  1.00  0.00     0.345 C 
ATOM      5  C   UNL     1      24.972 -34.093  21.025  1.00  0.00     0.285 C 
ATOM      6  C   UNL     1      24.359 -34.733  22.283  1.00  0.00     0.202 C 
ATOM      7  O   UNL     1      25.676 -35.061  20.255  1.00  0.00    -0.308 OA
ATOM      8  C   UNL     1      23.451 -35.890  21.884  1.00  0.00     0.183 C 
ATOM      9  C   UNL     1      24.211 -36.876  20.998  1.00  0.00     0.215 C 
BRANCH   5  10
ATOM     10  O   UNL     1      25.863 -33.066  21.489  1.00  0.00    -0.353 OA
ATOM     11  C   UNL     1      26.960 -33.608  22.215  1.00  0.00     0.198 C 
ENDBRANCH   5  10
BRANCH   6  12
ATOM     12  O   UNL     1      23.595 -33.782  23.041  1.00  0.00    -0.385 OA
ATOM     13  H   UNL     1      22.755 -33.680  22.550  1.00  0.00     0.211 HD
ENDBRANCH   6  12
BRANCH   8  14
ATOM     14  O   UNL     1      22.982 -36.579  23.057  1.00  0.00    -0.387 OA
ATOM     15  H   UNL     1      22.653 -35.873  23.650  1.00  0.00     0.211 HD
ENDBRANCH   8  14
BRANCH   9  16
ATOM     16  O   UNL     1      23.319 -37.921  20.593  1.00  0.00    -0.384 OA
ATOM     17  H   UNL     1      22.592 -37.904  21.248  1.00  0.00     0.211 HD
ENDBRANCH   9  16
ENDBRANCH   3   4
ENDBRANCH   1   3
BRANCH   1  18
ATOM     18  C   UNL     1      24.094 -35.006  16.706  1.00  0.00     0.067 A 
ATOM     19  C   UNL     1      25.190 -35.190  15.843  1.00  0.00     0.066 A 
ATOM     20  C   UNL     1      23.333 -33.829  16.635  1.00  0.00     0.066 A 
ATOM     21  C   UNL     1      25.511 -34.201  14.920  1.00  0.00     0.162 A 
ATOM     22  C   UNL     1      23.674 -32.854  15.706  1.00  0.00     0.162 A 
ATOM     23  C   UNL     1      24.754 -33.037  14.853  1.00  0.00     0.200 A 
BRANCH  21  24
ATOM     24  O   UNL     1      26.562 -34.327  14.056  1.00  0.00    -0.504 OA
ATOM     25  H   UNL     1      26.507 -33.609  13.398  1.00  0.00     0.293 HD
ENDBRANCH  21  24
BRANCH  22  26
ATOM     26  O   UNL     1      22.936 -31.709  15.639  1.00  0.00    -0.504 OA
ATOM     27  H   UNL     1      22.948 -31.460  14.692  1.00  0.00     0.293 HD
ENDBRANCH  22  26
BRANCH  23  28
ATOM     28  O   UNL     1      25.062 -32.056  13.950  1.00  0.00    -0.502 OA
ATOM     29  H   UNL     1      24.411 -32.179  13.228  1.00  0.00     0.293 HD
ENDBRANCH  23  28
ENDBRANCH   1  18
TORSDOF 10
ENDMDL
MODEL 7
REMARK VINA RESULT:    -6.865      1.857      6.257
REMARK INTER + INTRA:         -10.373
REMARK INTER:                  -9.566
REMARK INTRA:                  -0.807
REMARK UNBOUND:                -0.699
REMARK SMILES CO[C@H]1OC(OC(=O)c2cc(O)c(O)c(O)c2)[C@H](O)[C@@H](O)[C@@H]1O
REMARK SMILES IDX 7 1 8 2 6 3 5 4 3 5 22 6 4 7 20 8 18 9 2 10 1 11 23 12 21 14
REMARK SMILES IDX 19 16 9 18 17 19 10 20 15 21 11 22 13 23 16 24 12 26 14 28
REMARK H PARENT 23 13 21 15 19 17 16 25 12 27 14 29
ROOT
ATOM      1  C   UNL     1      22.385 -37.193  20.746  1.00  0.00     0.340 C 
ATOM      2  O   UNL     1      21.488 -37.895  21.185  1.00  0.00    -0.246 OA
ENDROOT
BRANCH   1   3
ATOM      3  O   UNL     1      22.915 -36.094  21.332  1.00  0.00    -0.429 OA
BRANCH   3   4
ATOM      4  C   UNL     1      23.940 -36.341  22.307  1.00  0.00     0.345 C 
ATOM      5  C   UNL     1      25.268 -34.535  21.494  1.00  0.00     0.285 C 
ATOM      6  C   UNL     1      25.024 -33.699  22.762  1.00  0.00     0.202 C 
ATOM      7  O   UNL     1      25.215 -35.927  21.786  1.00  0.00    -0.308 OA
ATOM      8  C   UNL     1      23.687 -34.082  23.385  1.00  0.00     0.183 C 
ATOM      9  C   UNL     1      23.627 -35.591  23.620  1.00  0.00     0.215 C 
BRANCH   5  10
ATOM     10  O   UNL     1      26.571 -34.167  21.013  1.00  0.00    -0.353 OA
ATOM     11  C   UNL     1      27.053 -35.086  20.040  1.00  0.00     0.198 C 
ENDBRANCH   5  10
BRANCH   6  12
ATOM     12  O   UNL     1      25.016 -32.291  22.474  1.00  0.00    -0.385 OA
ATOM     13  H   UNL     1      25.821 -32.136  21.940  1.00  0.00     0.211 HD
ENDBRANCH   6  12
BRANCH   8  14
ATOM     14  O   UNL     1      23.513 -33.405  24.642  1.00  0.00    -0.387 OA
ATOM     15  H   UNL     1      23.633 -32.455  24.436  1.00  0.00     0.211 HD
ENDBRANCH   8  14
BRANCH   9  16
ATOM     16  O   UNL     1      22.341 -35.929  24.152  1.00  0.00    -0.384 OA
ATOM     17  H   UNL     1      22.239 -36.887  23.985  1.00  0.00     0.211 HD
ENDBRANCH   9  16
ENDBRANCH   3   4
ENDBRANCH   1   3
BRANCH   1  18
ATOM     18  C   UNL     1      23.058 -37.464  19.448  1.00  0.00     0.067 A 
ATOM     19  C   UNL     1      23.306 -36.370  18.598  1.00  0.00     0.066 A 
ATOM     20  C   UNL     1      23.438 -38.757  19.057  1.00  0.00     0.066 A 
ATOM     21  C   UNL     1      23.931 -36.578  17.374  1.00  0.00     0.162 A 
ATOM     22  C   UNL     1      24.060 -38.941  17.829  1.00  0.00     0.162 A 
ATOM     23  C   UNL     1      24.306 -37.861  16.992  1.00  0.00     0.200 A 
BRANCH  21  24
ATOM     24  O   UNL     1      24.199 -35.553  16.511  1.00  0.00    -0.504 OA
ATOM     25  H   UNL     1      24.761 -34.903  16.970  1.00  0.00     0.293 HD
ENDBRANCH  21  24
BRANCH  22  26
ATOM     26  O   UNL     1      24.428 -40.199  17.448  1.00  0.00    -0.504 OA
ATOM     27  H   UNL     1      24.236 -40.760  18.227  1.00  0.00     0.293 HD
ENDBRANCH  22  26
BRANCH  23  28
ATOM     28  O   UNL     1      24.921 -38.078  15.788  1.00  0.00    -0.502 OA
ATOM     29  H   UNL     1      25.287 -38.983  15.864  1.00  0.00     0.293 HD
ENDBRANCH  23  28
ENDBRANCH   1  18
TORSDOF 10
ENDMDL
MODEL 8
REMARK VINA RESULT:    -6.741      1.703      2.176
REMARK INTER + INTRA:         -10.198
REMARK INTER:                  -9.513
REMARK INTRA:                  -0.686
REMARK UNBOUND:                -0.699
REMARK SMILES CO[C@H]1OC(OC(=O)c2cc(O)c(O)c(O)c2)[C@H](O)[C@@H](O)[C@@H]1O
REMARK SMILES IDX 7 1 8 2 6 3 5 4 3 5 22 6 4 7 20 8 18 9 2 10 1 11 23 12 21 14
REMARK SMILES IDX 19 16 9 18 17 19 10 20 15 21 11 22 13 23 16 24 12 26 14 28
REMARK H PARENT 23 13 21 15 19 17 16 25 12 27 14 29
ROOT
ATOM      1  C   UNL     1      24.183 -35.024  19.414  1.00  0.00     0.340 C 
ATOM      2  O   UNL     1      23.745 -34.280  18.552  1.00  0.00    -0.246 OA
ENDROOT
BRANCH   1   3
ATOM      3  O   UNL     1      24.622 -36.293  19.244  1.00  0.00    -0.429 OA
BRANCH   3   4
ATOM      4  C   UNL     1      25.332 -36.548  18.021  1.00  0.00     0.345 C 
ATOM      5  C   UNL     1      26.987 -37.840  19.151  1.00  0.00     0.285 C 
ATOM      6  C   UNL     1      26.501 -39.148  18.504  1.00  0.00     0.202 C 
ATOM      7  O   UNL     1      26.730 -36.727  18.300  1.00  0.00    -0.308 OA
ATOM      8  C   UNL     1      25.018 -39.040  18.168  1.00  0.00     0.183 C 
ATOM      9  C   UNL     1      24.760 -37.797  17.316  1.00  0.00     0.215 C 
BRANCH   5  10
ATOM     10  O   UNL     1      28.398 -37.997  19.368  1.00  0.00    -0.353 OA
ATOM     11  C   UNL     1      29.128 -36.852  18.946  1.00  0.00     0.198 C 
ENDBRANCH   5  10
BRANCH   6  12
ATOM     12  O   UNL     1      26.699 -40.274  19.374  1.00  0.00    -0.385 OA
ATOM     13  H   UNL     1      25.801 -40.531  19.667  1.00  0.00     0.211 HD
ENDBRANCH   6  12
BRANCH   8  14
ATOM     14  O   UNL     1      24.588 -40.204  17.441  1.00  0.00    -0.387 OA
ATOM     15  H   UNL     1      24.730 -40.953  18.055  1.00  0.00     0.211 HD
ENDBRANCH   8  14
BRANCH   9  16
ATOM     16  O   UNL     1      23.354 -37.690  17.064  1.00  0.00    -0.384 OA
ATOM     17  H   UNL     1      23.166 -38.363  16.379  1.00  0.00     0.211 HD
ENDBRANCH   9  16
ENDBRANCH   3   4
ENDBRANCH   1   3
BRANCH   1  18
ATOM     18  C   UNL     1      24.310 -34.619  20.840  1.00  0.00     0.067 A 
ATOM     19  C   UNL     1      23.792 -35.490  21.816  1.00  0.00     0.066 A 
ATOM     20  C   UNL     1      24.916 -33.413  21.224  1.00  0.00     0.066 A 
ATOM     21  C   UNL     1      23.887 -35.150  23.161  1.00  0.00     0.162 A 
ATOM     22  C   UNL     1      24.998 -33.093  22.574  1.00  0.00     0.162 A 
ATOM     23  C   UNL     1      24.489 -33.954  23.537  1.00  0.00     0.200 A 
BRANCH  21  24
ATOM     24  O   UNL     1      23.404 -35.958  24.151  1.00  0.00    -0.504 OA
ATOM     25  H   UNL     1      24.161 -36.353  24.622  1.00  0.00     0.293 HD
ENDBRANCH  21  24
BRANCH  22  26
ATOM     26  O   UNL     1      25.585 -31.920  22.948  1.00  0.00    -0.504 OA
ATOM     27  H   UNL     1      25.486 -31.333  22.170  1.00  0.00     0.293 HD
ENDBRANCH  22  26
BRANCH  23  28
ATOM     28  O   UNL     1      24.587 -33.608  24.857  1.00  0.00    -0.502 OA
ATOM     29  H   UNL     1      23.964 -32.859  24.958  1.00  0.00     0.293 HD
ENDBRANCH  23  28
ENDBRANCH   1  18
TORSDOF 10
ENDMDL
MODEL 9
REMARK VINA RESULT:    -6.688      3.341      5.940
REMARK INTER + INTRA:         -10.124
REMARK INTER:                  -9.440
REMARK INTRA:                  -0.684
REMARK UNBOUND:                -0.699
REMARK SMILES CO[C@H]1OC(OC(=O)c2cc(O)c(O)c(O)c2)[C@H](O)[C@@H](O)[C@@H]1O
REMARK SMILES IDX 7 1 8 2 6 3 5 4 3 5 22 6 4 7 20 8 18 9 2 10 1 11 23 12 21 14
REMARK SMILES IDX 19 16 9 18 17 19 10 20 15 21 11 22 13 23 16 24 12 26 14 28
REMARK H PARENT 23 13 21 15 19 17 16 25 12 27 14 29
ROOT
ATOM      1  C   UNL     1      24.441 -34.110  22.871  1.00  0.00     0.340 C 
ATOM      2  O   UNL     1      23.674 -34.435  23.763  1.00  0.00    -0.246 OA
ENDROOT
BRANCH   1   3
ATOM      3  O   UNL     1      24.402 -34.515  21.580  1.00  0.00    -0.429 OA
BRANCH   3   4
ATOM      4  C   UNL     1      24.804 -35.873  21.340  1.00  0.00     0.345 C 
ATOM      5  C   UNL     1      22.678 -36.430  20.416  1.00  0.00     0.285 C 
ATOM      6  C   UNL     1      23.261 -36.581  19.000  1.00  0.00     0.202 C 
ATOM      7  O   UNL     1      23.657 -36.737  21.402  1.00  0.00    -0.308 OA
ATOM      8  C   UNL     1      24.493 -35.697  18.850  1.00  0.00     0.183 C 
ATOM      9  C   UNL     1      25.495 -35.995  19.965  1.00  0.00     0.215 C 
BRANCH   5  10
ATOM     10  O   UNL     1      21.572 -37.343  20.496  1.00  0.00    -0.353 OA
ATOM     11  C   UNL     1      21.530 -38.010  21.752  1.00  0.00     0.198 C 
ENDBRANCH   5  10
BRANCH   6  12
ATOM     12  O   UNL     1      22.303 -36.218  17.992  1.00  0.00    -0.385 OA
ATOM     13  H   UNL     1      21.951 -37.067  17.656  1.00  0.00     0.211 HD
ENDBRANCH   6  12
BRANCH   8  14
ATOM     14  O   UNL     1      25.122 -35.934  17.578  1.00  0.00    -0.387 OA
ATOM     15  H   UNL     1      24.431 -36.357  17.029  1.00  0.00     0.211 HD
ENDBRANCH   8  14
BRANCH   9  16
ATOM     16  O   UNL     1      26.615 -35.112  19.832  1.00  0.00    -0.384 OA
ATOM     17  H   UNL     1      27.364 -35.686  19.574  1.00  0.00     0.211 HD
ENDBRANCH   9  16
ENDBRANCH   3   4
ENDBRANCH   1   3
BRANCH   1  18
ATOM     18  C   UNL     1      25.576 -33.174  23.086  1.00  0.00     0.067 A 
ATOM     19  C   UNL     1      26.020 -32.420  21.984  1.00  0.00     0.066 A 
ATOM     20  C   UNL     1      26.204 -33.031  24.334  1.00  0.00     0.066 A 
ATOM     21  C   UNL     1      27.080 -31.533  22.140  1.00  0.00     0.162 A 
ATOM     22  C   UNL     1      27.262 -32.141  24.465  1.00  0.00     0.162 A 
ATOM     23  C   UNL     1      27.698 -31.396  23.377  1.00  0.00     0.200 A 
BRANCH  21  24
ATOM     24  O   UNL     1      27.551 -30.774  21.106  1.00  0.00    -0.504 OA
ATOM     25  H   UNL     1      26.953 -30.887  20.344  1.00  0.00     0.293 HD
ENDBRANCH  21  24
BRANCH  22  26
ATOM     26  O   UNL     1      27.873 -32.004  25.677  1.00  0.00    -0.504 OA
ATOM     27  H   UNL     1      28.208 -32.900  25.888  1.00  0.00     0.293 HD
ENDBRANCH  22  26
BRANCH  23  28
ATOM     28  O   UNL     1      28.743 -30.527  23.542  1.00  0.00    -0.502 OA
ATOM     29  H   UNL     1      29.524 -31.108  23.655  1.00  0.00     0.293 HD
ENDBRANCH  23  28
ENDBRANCH   1  18
TORSDOF 10
ENDMDL
