MODEL 1
REMARK VINA RESULT:    -7.281      0.000      0.000
REMARK INTER + INTRA:         -11.073
REMARK INTER:                 -10.261
REMARK INTRA:                  -0.813
REMARK UNBOUND:                -0.813
REMARK SMILES CO[C@H]1OC(OC(=O)c2cc(O)c(O)c(O)c2)[C@H](O)[C@@H](O)[C@@H]1O
REMARK SMILES IDX 7 1 8 2 6 3 5 4 3 5 22 6 4 7 20 8 18 9 2 10 1 11 23 12 21 14
REMARK SMILES IDX 19 16 9 18 17 19 10 20 15 21 11 22 13 23 16 24 12 26 14 28
REMARK H PARENT 23 13 21 15 19 17 16 25 12 27 14 29
ROOT
ATOM      1  C   UNL     1      26.453 -34.660  21.133  1.00  0.00     0.340 C 
ATOM      2  O   UNL     1      27.635 -34.825  20.878  1.00  0.00    -0.246 OA
ENDROOT
BRANCH   1   3
ATOM      3  O   UNL     1      25.400 -35.010  20.359  1.00  0.00    -0.429 OA
BRANCH   3   4
ATOM      4  C   UNL     1      25.345 -36.392  19.969  1.00  0.00     0.345 C 
ATOM      5  C   UNL     1      22.973 -36.323  19.740  1.00  0.00     0.285 C 
ATOM      6  C   UNL     1      23.052 -36.458  18.209  1.00  0.00     0.202 C 
ATOM      7  O   UNL     1      24.084 -36.958  20.363  1.00  0.00    -0.308 OA
ATOM      8  C   UNL     1      24.371 -35.884  17.707  1.00  0.00     0.183 C 
ATOM      9  C   UNL     1      25.544 -36.530  18.445  1.00  0.00     0.215 C 
BRANCH   5  10
ATOM     10  O   UNL     1      21.742 -36.948  20.137  1.00  0.00    -0.353 OA
ATOM     11  C   UNL     1      21.923 -37.801  21.261  1.00  0.00     0.198 C 
ENDBRANCH   5  10
BRANCH   6  12
ATOM     12  O   UNL     1      21.969 -35.772  17.561  1.00  0.00    -0.385 OA
ATOM     13  H   UNL     1      22.165 -35.833  16.604  1.00  0.00     0.211 HD
ENDBRANCH   6  12
BRANCH   8  14
ATOM     14  O   UNL     1      24.514 -36.129  16.296  1.00  0.00    -0.387 OA
ATOM     15  H   UNL     1      24.099 -37.004  16.148  1.00  0.00     0.211 HD
ENDBRANCH   8  14
BRANCH   9  16
ATOM     16  O   UNL     1      26.764 -35.932  17.993  1.00  0.00    -0.384 OA
ATOM     17  H   UNL     1      27.319 -35.848  18.794  1.00  0.00     0.211 HD
ENDBRANCH   9  16
ENDBRANCH   3   4
ENDBRANCH   1   3
BRANCH   1  18
ATOM     18  C   UNL     1      25.983 -34.027  22.394  1.00  0.00     0.067 A 
ATOM     19  C   UNL     1      24.599 -34.025  22.648  1.00  0.00     0.066 A 
ATOM     20  C   UNL     1      26.867 -33.440  23.313  1.00  0.00     0.066 A 
ATOM     21  C   UNL     1      24.115 -33.442  23.814  1.00  0.00     0.162 A 
ATOM     22  C   UNL     1      26.361 -32.862  24.470  1.00  0.00     0.162 A 
ATOM     23  C   UNL     1      24.995 -32.862  24.721  1.00  0.00     0.200 A 
BRANCH  21  24
ATOM     24  O   UNL     1      22.782 -33.414  24.114  1.00  0.00    -0.504 OA
ATOM     25  H   UNL     1      22.338 -32.814  23.487  1.00  0.00     0.293 HD
ENDBRANCH  21  24
BRANCH  22  26
ATOM     26  O   UNL     1      27.220 -32.289  25.362  1.00  0.00    -0.504 OA
ATOM     27  H   UNL     1      26.640 -31.840  26.011  1.00  0.00     0.293 HD
ENDBRANCH  22  26
BRANCH  23  28
ATOM     28  O   UNL     1      24.530 -32.284  25.871  1.00  0.00    -0.502 OA
ATOM     29  H   UNL     1      25.268 -32.385  26.508  1.00  0.00     0.293 HD
ENDBRANCH  23  28
ENDBRANCH   1  18
TORSDOF 10
ENDMDL
MODEL 2
REMARK VINA RESULT:    -7.264      2.744      4.764
REMARK INTER + INTRA:         -11.049
REMARK INTER:                 -10.359
REMARK INTRA:                  -0.690
REMARK UNBOUND:                -0.813
REMARK SMILES CO[C@H]1OC(OC(=O)c2cc(O)c(O)c(O)c2)[C@H](O)[C@@H](O)[C@@H]1O
REMARK SMILES IDX 7 1 8 2 6 3 5 4 3 5 22 6 4 7 20 8 18 9 2 10 1 11 23 12 21 14
REMARK SMILES IDX 19 16 9 18 17 19 10 20 15 21 11 22 13 23 16 24 12 26 14 28
REMARK H PARENT 23 13 21 15 19 17 16 25 12 27 14 29
ROOT
ATOM      1  C   UNL     1      22.829 -36.523  18.199  1.00  0.00     0.340 C 
ATOM      2  O   UNL     1      22.255 -35.722  17.479  1.00  0.00    -0.246 OA
ENDROOT
BRANCH   1   3
ATOM      3  O   UNL     1      23.480 -37.643  17.808  1.00  0.00    -0.429 OA
BRANCH   3   4
ATOM      4  C   UNL     1      24.720 -37.433  17.113  1.00  0.00     0.345 C 
ATOM      5  C   UNL     1      25.997 -38.090  19.016  1.00  0.00     0.285 C 
ATOM      6  C   UNL     1      26.465 -39.388  18.336  1.00  0.00     0.202 C 
ATOM      7  O   UNL     1      25.747 -37.073  18.051  1.00  0.00    -0.308 OA
ATOM      8  C   UNL     1      25.428 -39.838  17.313  1.00  0.00     0.183 C 
ATOM      9  C   UNL     1      25.124 -38.704  16.335  1.00  0.00     0.215 C 
BRANCH   5  10
ATOM     10  O   UNL     1      27.055 -37.697  19.905  1.00  0.00    -0.353 OA
ATOM     11  C   UNL     1      28.007 -36.862  19.256  1.00  0.00     0.198 C 
ENDBRANCH   5  10
BRANCH   6  12
ATOM     12  O   UNL     1      26.666 -40.443  19.290  1.00  0.00    -0.385 OA
ATOM     13  H   UNL     1      27.616 -40.667  19.227  1.00  0.00     0.211 HD
ENDBRANCH   6  12
BRANCH   8  14
ATOM     14  O   UNL     1      25.918 -40.973  16.577  1.00  0.00    -0.387 OA
ATOM     15  H   UNL     1      25.825 -41.731  17.190  1.00  0.00     0.211 HD
ENDBRANCH   8  14
BRANCH   9  16
ATOM     16  O   UNL     1      24.108 -39.136  15.423  1.00  0.00    -0.384 OA
ATOM     17  H   UNL     1      24.552 -39.774  14.829  1.00  0.00     0.211 HD
ENDBRANCH   9  16
ENDBRANCH   3   4
ENDBRANCH   1   3
BRANCH   1  18
ATOM     18  C   UNL     1      22.903 -36.370  19.677  1.00  0.00     0.067 A 
ATOM     19  C   UNL     1      22.085 -37.203  20.463  1.00  0.00     0.066 A 
ATOM     20  C   UNL     1      23.746 -35.430  20.291  1.00  0.00     0.066 A 
ATOM     21  C   UNL     1      22.121 -37.091  21.848  1.00  0.00     0.162 A 
ATOM     22  C   UNL     1      23.764 -35.336  21.677  1.00  0.00     0.162 A 
ATOM     23  C   UNL     1      22.958 -36.160  22.452  1.00  0.00     0.200 A 
BRANCH  21  24
ATOM     24  O   UNL     1      21.352 -37.876  22.661  1.00  0.00    -0.504 OA
ATOM     25  H   UNL     1      21.122 -37.362  23.457  1.00  0.00     0.293 HD
ENDBRANCH  21  24
BRANCH  22  26
ATOM     26  O   UNL     1      24.582 -34.422  22.273  1.00  0.00    -0.504 OA
ATOM     27  H   UNL     1      24.145 -34.218  23.126  1.00  0.00     0.293 HD
ENDBRANCH  22  26
BRANCH  23  28
ATOM     28  O   UNL     1      23.001 -36.041  23.814  1.00  0.00    -0.502 OA
ATOM     29  H   UNL     1      22.752 -36.930  24.143  1.00  0.00     0.293 HD
ENDBRANCH  23  28
ENDBRANCH   1  18
TORSDOF 10
ENDMDL
MODEL 3
REMARK VINA RESULT:    -7.238      0.253      1.740
REMARK INTER + INTRA:         -11.013
REMARK INTER:                 -10.193
REMARK INTRA:                  -0.819
REMARK UNBOUND:                -0.813
REMARK SMILES CO[C@H]1OC(OC(=O)c2cc(O)c(O)c(O)c2)[C@H](O)[C@@H](O)[C@@H]1O
REMARK SMILES IDX 7 1 8 2 6 3 5 4 3 5 22 6 4 7 20 8 18 9 2 10 1 11 23 12 21 14
REMARK SMILES IDX 19 16 9 18 17 19 10 20 15 21 11 22 13 23 16 24 12 26 14 28
REMARK H PARENT 23 13 21 15 19 17 16 25 12 27 14 29
ROOT
ATOM      1  C   UNL     1      26.477 -34.630  21.157  1.00  0.00     0.340 C 
ATOM      2  O   UNL     1      27.648 -34.754  20.837  1.00  0.00    -0.246 OA
ENDROOT
BRANCH   1   3
ATOM      3  O   UNL     1      25.395 -35.009  20.438  1.00  0.00    -0.429 OA
BRANCH   3   4
ATOM      4  C   UNL     1      25.327 -36.403  20.101  1.00  0.00     0.345 C 
ATOM      5  C   UNL     1      22.957 -36.318  19.858  1.00  0.00     0.285 C 
ATOM      6  C   UNL     1      23.041 -36.513  18.334  1.00  0.00     0.202 C 
ATOM      7  O   UNL     1      24.059 -36.941  20.511  1.00  0.00    -0.308 OA
ATOM      8  C   UNL     1      24.368 -35.972  17.816  1.00  0.00     0.183 C 
ATOM      9  C   UNL     1      25.531 -36.602  18.584  1.00  0.00     0.215 C 
BRANCH   5  10
ATOM     10  O   UNL     1      21.718 -36.915  20.274  1.00  0.00    -0.353 OA
ATOM     11  C   UNL     1      21.910 -37.849  21.329  1.00  0.00     0.198 C 
ENDBRANCH   5  10
BRANCH   6  12
ATOM     12  O   UNL     1      21.968 -35.840  17.656  1.00  0.00    -0.385 OA
ATOM     13  H   UNL     1      21.269 -35.728  18.332  1.00  0.00     0.211 HD
ENDBRANCH   6  12
BRANCH   8  14
ATOM     14  O   UNL     1      24.514 -36.271  16.417  1.00  0.00    -0.387 OA
ATOM     15  H   UNL     1      25.036 -35.527  16.052  1.00  0.00     0.211 HD
ENDBRANCH   8  14
BRANCH   9  16
ATOM     16  O   UNL     1      26.759 -36.034  18.115  1.00  0.00    -0.384 OA
ATOM     17  H   UNL     1      26.675 -36.012  17.140  1.00  0.00     0.211 HD
ENDBRANCH   9  16
ENDBRANCH   3   4
ENDBRANCH   1   3
BRANCH   1  18
ATOM     18  C   UNL     1      26.056 -34.024  22.448  1.00  0.00     0.067 A 
ATOM     19  C   UNL     1      27.055 -33.464  23.266  1.00  0.00     0.066 A 
ATOM     20  C   UNL     1      24.715 -34.002  22.863  1.00  0.00     0.066 A 
ATOM     21  C   UNL     1      26.706 -32.889  24.482  1.00  0.00     0.162 A 
ATOM     22  C   UNL     1      24.390 -33.423  24.083  1.00  0.00     0.162 A 
ATOM     23  C   UNL     1      25.376 -32.869  24.888  1.00  0.00     0.200 A 
BRANCH  21  24
ATOM     24  O   UNL     1      27.633 -32.328  25.315  1.00  0.00    -0.504 OA
ATOM     25  H   UNL     1      27.182 -32.042  26.130  1.00  0.00     0.293 HD
ENDBRANCH  21  24
BRANCH  22  26
ATOM     26  O   UNL     1      23.087 -33.403  24.487  1.00  0.00    -0.504 OA
ATOM     27  H   UNL     1      22.645 -34.079  23.933  1.00  0.00     0.293 HD
ENDBRANCH  22  26
BRANCH  23  28
ATOM     28  O   UNL     1      25.021 -32.306  26.084  1.00  0.00    -0.502 OA
ATOM     29  H   UNL     1      25.652 -32.689  26.728  1.00  0.00     0.293 HD
ENDBRANCH  23  28
ENDBRANCH   1  18
TORSDOF 10
ENDMDL
MODEL 4
REMARK VINA RESULT:    -7.139      1.689      3.387
REMARK INTER + INTRA:         -10.873
REMARK INTER:                 -10.090
REMARK INTRA:                  -0.782
REMARK UNBOUND:                -0.813
REMARK SMILES CO[C@H]1OC(OC(=O)c2cc(O)c(O)c(O)c2)[C@H](O)[C@@H](O)[C@@H]1O
REMARK SMILES IDX 7 1 8 2 6 3 5 4 3 5 22 6 4 7 20 8 18 9 2 10 1 11 23 12 21 14
REMARK SMILES IDX 19 16 9 18 17 19 10 20 15 21 11 22 13 23 16 24 12 26 14 28
REMARK H PARENT 23 13 21 15 19 17 16 25 12 27 14 29
ROOT
ATOM      1  C   UNL     1      23.711 -35.802  22.276  1.00  0.00     0.340 C 
ATOM      2  O   UNL     1      22.928 -36.458  22.944  1.00  0.00    -0.246 OA
ENDROOT
BRANCH   1   3
ATOM      3  O   UNL     1      24.081 -36.039  20.995  1.00  0.00    -0.429 OA
BRANCH   3   4
ATOM      4  C   UNL     1      23.008 -36.273  20.070  1.00  0.00     0.345 C 
ATOM      5  C   UNL     1      24.407 -35.809  18.196  1.00  0.00     0.285 C 
ATOM      6  C   UNL     1      24.394 -37.278  17.740  1.00  0.00     0.202 C 
ATOM      7  O   UNL     1      23.205 -35.482  18.887  1.00  0.00    -0.308 OA
ATOM      8  C   UNL     1      24.181 -38.191  18.942  1.00  0.00     0.183 C 
ATOM      9  C   UNL     1      22.926 -37.772  19.707  1.00  0.00     0.215 C 
BRANCH   5  10
ATOM     10  O   UNL     1      24.538 -35.018  17.005  1.00  0.00    -0.353 OA
ATOM     11  C   UNL     1      23.349 -34.293  16.719  1.00  0.00     0.198 C 
ENDBRANCH   5  10
BRANCH   6  12
ATOM     12  O   UNL     1      25.624 -37.641  17.093  1.00  0.00    -0.385 OA
ATOM     13  H   UNL     1      26.313 -37.544  17.782  1.00  0.00     0.211 HD
ENDBRANCH   6  12
BRANCH   8  14
ATOM     14  O   UNL     1      24.032 -39.555  18.509  1.00  0.00    -0.387 OA
ATOM     15  H   UNL     1      23.863 -40.063  19.329  1.00  0.00     0.211 HD
ENDBRANCH   8  14
BRANCH   9  16
ATOM     16  O   UNL     1      22.783 -38.609  20.860  1.00  0.00    -0.384 OA
ATOM     17  H   UNL     1      23.616 -38.500  21.360  1.00  0.00     0.211 HD
ENDBRANCH   9  16
ENDBRANCH   3   4
ENDBRANCH   1   3
BRANCH   1  18
ATOM     18  C   UNL     1      24.396 -34.590  22.797  1.00  0.00     0.067 A 
ATOM     19  C   UNL     1      25.444 -34.048  22.029  1.00  0.00     0.066 A 
ATOM     20  C   UNL     1      24.034 -33.989  24.013  1.00  0.00     0.066 A 
ATOM     21  C   UNL     1      26.113 -32.916  22.480  1.00  0.00     0.162 A 
ATOM     22  C   UNL     1      24.717 -32.860  24.444  1.00  0.00     0.162 A 
ATOM     23  C   UNL     1      25.750 -32.325  23.685  1.00  0.00     0.200 A 
BRANCH  21  24
ATOM     24  O   UNL     1      27.135 -32.346  21.775  1.00  0.00    -0.504 OA
ATOM     25  H   UNL     1      26.805 -32.117  20.886  1.00  0.00     0.293 HD
ENDBRANCH  21  24
BRANCH  22  26
ATOM     26  O   UNL     1      24.366 -32.277  25.627  1.00  0.00    -0.504 OA
ATOM     27  H   UNL     1      24.217 -31.335  25.406  1.00  0.00     0.293 HD
ENDBRANCH  22  26
BRANCH  23  28
ATOM     28  O   UNL     1      26.402 -31.211  24.139  1.00  0.00    -0.502 OA
ATOM     29  H   UNL     1      26.271 -30.548  23.430  1.00  0.00     0.293 HD
ENDBRANCH  23  28
ENDBRANCH   1  18
TORSDOF 10
ENDMDL
MODEL 5
REMARK VINA RESULT:    -7.134      1.696      3.229
REMARK INTER + INTRA:         -10.867
REMARK INTER:                 -10.070
REMARK INTRA:                  -0.797
REMARK UNBOUND:                -0.813
REMARK SMILES CO[C@H]1OC(OC(=O)c2cc(O)c(O)c(O)c2)[C@H](O)[C@@H](O)[C@@H]1O
REMARK SMILES IDX 7 1 8 2 6 3 5 4 3 5 22 6 4 7 20 8 18 9 2 10 1 11 23 12 21 14
REMARK SMILES IDX 19 16 9 18 17 19 10 20 15 21 11 22 13 23 16 24 12 26 14 28
REMARK H PARENT 23 13 21 15 19 17 16 25 12 27 14 29
ROOT
ATOM      1  C   UNL     1      23.761 -35.832  22.295  1.00  0.00     0.340 C 
ATOM      2  O   UNL     1      22.972 -36.456  22.986  1.00  0.00    -0.246 OA
ENDROOT
BRANCH   1   3
ATOM      3  O   UNL     1      24.119 -36.109  21.020  1.00  0.00    -0.429 OA
BRANCH   3   4
ATOM      4  C   UNL     1      23.035 -36.280  20.092  1.00  0.00     0.345 C 
ATOM      5  C   UNL     1      24.453 -35.852  18.224  1.00  0.00     0.285 C 
ATOM      6  C   UNL     1      24.373 -37.312  17.746  1.00  0.00     0.202 C 
ATOM      7  O   UNL     1      23.268 -35.481  18.921  1.00  0.00    -0.308 OA
ATOM      8  C   UNL     1      24.119 -38.232  18.934  1.00  0.00     0.183 C 
ATOM      9  C   UNL     1      22.885 -37.767  19.707  1.00  0.00     0.215 C 
BRANCH   5  10
ATOM     10  O   UNL     1      24.621 -35.049  17.044  1.00  0.00    -0.353 OA
ATOM     11  C   UNL     1      23.474 -34.249  16.784  1.00  0.00     0.198 C 
ENDBRANCH   5  10
BRANCH   6  12
ATOM     12  O   UNL     1      25.586 -37.721  17.092  1.00  0.00    -0.385 OA
ATOM     13  H   UNL     1      26.299 -37.532  17.735  1.00  0.00     0.211 HD
ENDBRANCH   6  12
BRANCH   8  14
ATOM     14  O   UNL     1      23.908 -39.581  18.480  1.00  0.00    -0.387 OA
ATOM     15  H   UNL     1      23.982 -40.133  19.286  1.00  0.00     0.211 HD
ENDBRANCH   8  14
BRANCH   9  16
ATOM     16  O   UNL     1      22.704 -38.615  20.847  1.00  0.00    -0.384 OA
ATOM     17  H   UNL     1      23.546 -39.104  20.938  1.00  0.00     0.211 HD
ENDBRANCH   9  16
ENDBRANCH   3   4
ENDBRANCH   1   3
BRANCH   1  18
ATOM     18  C   UNL     1      24.469 -34.616  22.779  1.00  0.00     0.067 A 
ATOM     19  C   UNL     1      24.043 -34.052  23.996  1.00  0.00     0.066 A 
ATOM     20  C   UNL     1      25.525 -34.030  22.064  1.00  0.00     0.066 A 
ATOM     21  C   UNL     1      24.675 -32.914  24.485  1.00  0.00     0.162 A 
ATOM     22  C   UNL     1      26.140 -32.892  22.571  1.00  0.00     0.162 A 
ATOM     23  C   UNL     1      25.721 -32.337  23.773  1.00  0.00     0.200 A 
BRANCH  21  24
ATOM     24  O   UNL     1      24.306 -32.325  25.661  1.00  0.00    -0.504 OA
ATOM     25  H   UNL     1      24.132 -31.381  25.491  1.00  0.00     0.293 HD
ENDBRANCH  21  24
BRANCH  22  26
ATOM     26  O   UNL     1      27.165 -32.321  21.875  1.00  0.00    -0.504 OA
ATOM     27  H   UNL     1      27.351 -32.949  21.147  1.00  0.00     0.293 HD
ENDBRANCH  22  26
BRANCH  23  28
ATOM     28  O   UNL     1      26.349 -31.217  24.243  1.00  0.00    -0.502 OA
ATOM     29  H   UNL     1      25.625 -30.668  24.608  1.00  0.00     0.293 HD
ENDBRANCH  23  28
ENDBRANCH   1  18
TORSDOF 10
ENDMDL
MODEL 6
REMARK VINA RESULT:    -6.900      1.676      6.509
REMARK INTER + INTRA:         -10.536
REMARK INTER:                  -9.759
REMARK INTRA:                  -0.777
REMARK UNBOUND:                -0.813
REMARK SMILES CO[C@H]1OC(OC(=O)c2cc(O)c(O)c(O)c2)[C@H](O)[C@@H](O)[C@@H]1O
REMARK SMILES IDX 7 1 8 2 6 3 5 4 3 5 22 6 4 7 20 8 18 9 2 10 1 11 23 12 21 14
REMARK SMILES IDX 19 16 9 18 17 19 10 20 15 21 11 22 13 23 16 24 12 26 14 28
REMARK H PARENT 23 13 21 15 19 17 16 25 12 27 14 29
ROOT
ATOM      1  C   UNL     1      23.119 -36.932  20.007  1.00  0.00     0.340 C 
ATOM      2  O   UNL     1      22.716 -38.084  20.032  1.00  0.00    -0.246 OA
ENDROOT
BRANCH   1   3
ATOM      3  O   UNL     1      23.136 -36.056  21.038  1.00  0.00    -0.429 OA
BRANCH   3   4
ATOM      4  C   UNL     1      24.064 -36.353  22.094  1.00  0.00     0.345 C 
ATOM      5  C   UNL     1      25.435 -34.486  21.529  1.00  0.00     0.285 C 
ATOM      6  C   UNL     1      25.054 -33.734  22.816  1.00  0.00     0.202 C 
ATOM      7  O   UNL     1      25.376 -35.895  21.729  1.00  0.00    -0.308 OA
ATOM      8  C   UNL     1      23.668 -34.170  23.278  1.00  0.00     0.183 C 
ATOM      9  C   UNL     1      23.611 -35.692  23.413  1.00  0.00     0.215 C 
BRANCH   5  10
ATOM     10  O   UNL     1      26.773 -34.076  21.204  1.00  0.00    -0.353 OA
ATOM     11  C   UNL     1      27.367 -34.932  20.235  1.00  0.00     0.198 C 
ENDBRANCH   5  10
BRANCH   6  12
ATOM     12  O   UNL     1      25.051 -32.312  22.616  1.00  0.00    -0.385 OA
ATOM     13  H   UNL     1      25.232 -31.929  23.499  1.00  0.00     0.211 HD
ENDBRANCH   6  12
BRANCH   8  14
ATOM     14  O   UNL     1      23.360 -33.575  24.552  1.00  0.00    -0.387 OA
ATOM     15  H   UNL     1      22.493 -33.954  24.804  1.00  0.00     0.211 HD
ENDBRANCH   8  14
BRANCH   9  16
ATOM     16  O   UNL     1      22.285 -36.075  23.793  1.00  0.00    -0.384 OA
ATOM     17  H   UNL     1      22.187 -36.998  23.484  1.00  0.00     0.211 HD
ENDBRANCH   9  16
ENDBRANCH   3   4
ENDBRANCH   1   3
BRANCH   1  18
ATOM     18  C   UNL     1      23.681 -36.302  18.783  1.00  0.00     0.067 A 
ATOM     19  C   UNL     1      22.892 -35.346  18.117  1.00  0.00     0.066 A 
ATOM     20  C   UNL     1      24.951 -36.636  18.285  1.00  0.00     0.066 A 
ATOM     21  C   UNL     1      23.379 -34.734  16.967  1.00  0.00     0.162 A 
ATOM     22  C   UNL     1      25.415 -36.013  17.134  1.00  0.00     0.162 A 
ATOM     23  C   UNL     1      24.637 -35.068  16.478  1.00  0.00     0.200 A 
BRANCH  21  24
ATOM     24  O   UNL     1      22.658 -33.798  16.282  1.00  0.00    -0.504 OA
ATOM     25  H   UNL     1      21.718 -34.059  16.300  1.00  0.00     0.293 HD
ENDBRANCH  21  24
BRANCH  22  26
ATOM     26  O   UNL     1      26.648 -36.338  16.649  1.00  0.00    -0.504 OA
ATOM     27  H   UNL     1      27.276 -35.838  17.210  1.00  0.00     0.293 HD
ENDBRANCH  22  26
BRANCH  23  28
ATOM     28  O   UNL     1      25.125 -34.473  15.347  1.00  0.00    -0.502 OA
ATOM     29  H   UNL     1      25.527 -35.209  14.840  1.00  0.00     0.293 HD
ENDBRANCH  23  28
ENDBRANCH   1  18
TORSDOF 10
ENDMDL
MODEL 7
REMARK VINA RESULT:    -6.865      1.888      6.944
REMARK INTER + INTRA:         -10.487
REMARK INTER:                  -9.701
REMARK INTRA:                  -0.786
REMARK UNBOUND:                -0.813
REMARK SMILES CO[C@H]1OC(OC(=O)c2cc(O)c(O)c(O)c2)[C@H](O)[C@@H](O)[C@@H]1O
REMARK SMILES IDX 7 1 8 2 6 3 5 4 3 5 22 6 4 7 20 8 18 9 2 10 1 11 23 12 21 14
REMARK SMILES IDX 19 16 9 18 17 19 10 20 15 21 11 22 13 23 16 24 12 26 14 28
REMARK H PARENT 23 13 21 15 19 17 16 25 12 27 14 29
ROOT
ATOM      1  C   UNL     1      22.420 -36.928  20.510  1.00  0.00     0.340 C 
ATOM      2  O   UNL     1      21.453 -37.571  20.883  1.00  0.00    -0.246 OA
ENDROOT
BRANCH   1   3
ATOM      3  O   UNL     1      22.991 -35.878  21.145  1.00  0.00    -0.429 OA
BRANCH   3   4
ATOM      4  C   UNL     1      24.026 -36.205  22.085  1.00  0.00     0.345 C 
ATOM      5  C   UNL     1      25.343 -34.334  21.417  1.00  0.00     0.285 C 
ATOM      6  C   UNL     1      25.111 -33.610  22.755  1.00  0.00     0.202 C 
ATOM      7  O   UNL     1      25.294 -35.746  21.589  1.00  0.00    -0.308 OA
ATOM      8  C   UNL     1      23.780 -34.049  23.355  1.00  0.00     0.183 C 
ATOM      9  C   UNL     1      23.725 -35.572  23.460  1.00  0.00     0.215 C 
BRANCH   5  10
ATOM     10  O   UNL     1      26.640 -33.923  20.957  1.00  0.00    -0.353 OA
ATOM     11  C   UNL     1      27.303 -34.964  20.248  1.00  0.00     0.198 C 
ENDBRANCH   5  10
BRANCH   6  12
ATOM     12  O   UNL     1      25.098 -32.183  22.589  1.00  0.00    -0.385 OA
ATOM     13  H   UNL     1      24.546 -32.023  21.796  1.00  0.00     0.211 HD
ENDBRANCH   6  12
BRANCH   8  14
ATOM     14  O   UNL     1      23.618 -33.482  24.668  1.00  0.00    -0.387 OA
ATOM     15  H   UNL     1      22.651 -33.479  24.824  1.00  0.00     0.211 HD
ENDBRANCH   8  14
BRANCH   9  16
ATOM     16  O   UNL     1      22.445 -35.957  23.974  1.00  0.00    -0.384 OA
ATOM     17  H   UNL     1      22.289 -36.857  23.624  1.00  0.00     0.211 HD
ENDBRANCH   9  16
ENDBRANCH   3   4
ENDBRANCH   1   3
BRANCH   1  18
ATOM     18  C   UNL     1      23.148 -37.228  19.248  1.00  0.00     0.067 A 
ATOM     19  C   UNL     1      23.457 -38.574  18.974  1.00  0.00     0.066 A 
ATOM     20  C   UNL     1      23.530 -36.222  18.346  1.00  0.00     0.066 A 
ATOM     21  C   UNL     1      24.139 -38.899  17.806  1.00  0.00     0.162 A 
ATOM     22  C   UNL     1      24.211 -36.571  17.187  1.00  0.00     0.162 A 
ATOM     23  C   UNL     1      24.514 -37.899  16.917  1.00  0.00     0.200 A 
BRANCH  21  24
ATOM     24  O   UNL     1      24.462 -40.188  17.488  1.00  0.00    -0.504 OA
ATOM     25  H   UNL     1      25.432 -40.281  17.530  1.00  0.00     0.293 HD
ENDBRANCH  21  24
BRANCH  22  26
ATOM     26  O   UNL     1      24.584 -35.593  16.312  1.00  0.00    -0.504 OA
ATOM     27  H   UNL     1      24.869 -34.847  16.879  1.00  0.00     0.293 HD
ENDBRANCH  22  26
BRANCH  23  28
ATOM     28  O   UNL     1      25.186 -38.207  15.765  1.00  0.00    -0.502 OA
ATOM     29  H   UNL     1      24.835 -39.085  15.508  1.00  0.00     0.293 HD
ENDBRANCH  23  28
ENDBRANCH   1  18
TORSDOF 10
ENDMDL
MODEL 8
REMARK VINA RESULT:    -6.854      2.530      6.873
REMARK INTER + INTRA:         -10.472
REMARK INTER:                  -9.705
REMARK INTRA:                  -0.767
REMARK UNBOUND:                -0.813
REMARK SMILES CO[C@H]1OC(OC(=O)c2cc(O)c(O)c(O)c2)[C@H](O)[C@@H](O)[C@@H]1O
REMARK SMILES IDX 7 1 8 2 6 3 5 4 3 5 22 6 4 7 20 8 18 9 2 10 1 11 23 12 21 14
REMARK SMILES IDX 19 16 9 18 17 19 10 20 15 21 11 22 13 23 16 24 12 26 14 28
REMARK H PARENT 23 13 21 15 19 17 16 25 12 27 14 29
ROOT
ATOM      1  C   UNL     1      23.779 -36.103  17.701  1.00  0.00     0.340 C 
ATOM      2  O   UNL     1      23.568 -37.256  17.362  1.00  0.00    -0.246 OA
ENDROOT
BRANCH   1   3
ATOM      3  O   UNL     1      23.779 -35.616  18.964  1.00  0.00    -0.429 OA
BRANCH   3   4
ATOM      4  C   UNL     1      24.817 -36.114  19.824  1.00  0.00     0.345 C 
ATOM      5  C   UNL     1      24.922 -34.060  21.030  1.00  0.00     0.285 C 
ATOM      6  C   UNL     1      24.320 -34.697  22.295  1.00  0.00     0.202 C 
ATOM      7  O   UNL     1      25.642 -35.024  20.270  1.00  0.00    -0.308 OA
ATOM      8  C   UNL     1      23.431 -35.873  21.909  1.00  0.00     0.183 C 
ATOM      9  C   UNL     1      24.207 -36.856  21.032  1.00  0.00     0.215 C 
BRANCH   5  10
ATOM     10  O   UNL     1      25.796 -33.014  21.482  1.00  0.00    -0.353 OA
ATOM     11  C   UNL     1      26.904 -33.530  22.209  1.00  0.00     0.198 C 
ENDBRANCH   5  10
BRANCH   6  12
ATOM     12  O   UNL     1      23.541 -33.751  23.044  1.00  0.00    -0.385 OA
ATOM     13  H   UNL     1      23.897 -32.873  22.796  1.00  0.00     0.211 HD
ENDBRANCH   6  12
BRANCH   8  14
ATOM     14  O   UNL     1      22.974 -36.558  23.089  1.00  0.00    -0.387 OA
ATOM     15  H   UNL     1      22.074 -36.873  22.865  1.00  0.00     0.211 HD
ENDBRANCH   8  14
BRANCH   9  16
ATOM     16  O   UNL     1      23.332 -37.919  20.639  1.00  0.00    -0.384 OA
ATOM     17  H   UNL     1      22.704 -38.021  21.382  1.00  0.00     0.211 HD
ENDBRANCH   9  16
ENDBRANCH   3   4
ENDBRANCH   1   3
BRANCH   1  18
ATOM     18  C   UNL     1      24.088 -35.020  16.729  1.00  0.00     0.067 A 
ATOM     19  C   UNL     1      25.210 -35.190  15.896  1.00  0.00     0.066 A 
ATOM     20  C   UNL     1      23.307 -33.858  16.629  1.00  0.00     0.066 A 
ATOM     21  C   UNL     1      25.537 -34.202  14.974  1.00  0.00     0.162 A 
ATOM     22  C   UNL     1      23.654 -32.884  15.701  1.00  0.00     0.162 A 
ATOM     23  C   UNL     1      24.760 -33.053  14.878  1.00  0.00     0.200 A 
BRANCH  21  24
ATOM     24  O   UNL     1      26.612 -34.314  14.138  1.00  0.00    -0.504 OA
ATOM     25  H   UNL     1      26.573 -35.185  13.703  1.00  0.00     0.293 HD
ENDBRANCH  21  24
BRANCH  22  26
ATOM     26  O   UNL     1      22.897 -31.753  15.605  1.00  0.00    -0.504 OA
ATOM     27  H   UNL     1      22.354 -31.886  14.801  1.00  0.00     0.293 HD
ENDBRANCH  22  26
BRANCH  23  28
ATOM     28  O   UNL     1      25.073 -32.073  13.975  1.00  0.00    -0.502 OA
ATOM     29  H   UNL     1      25.307 -32.562  13.159  1.00  0.00     0.293 HD
ENDBRANCH  23  28
ENDBRANCH   1  18
TORSDOF 10
ENDMDL
MODEL 9
REMARK VINA RESULT:    -6.602      1.630      2.751
REMARK INTER + INTRA:         -10.117
REMARK INTER:                  -9.415
REMARK INTRA:                  -0.702
REMARK UNBOUND:                -0.813
REMARK SMILES CO[C@H]1OC(OC(=O)c2cc(O)c(O)c(O)c2)[C@H](O)[C@@H](O)[C@@H]1O
REMARK SMILES IDX 7 1 8 2 6 3 5 4 3 5 22 6 4 7 20 8 18 9 2 10 1 11 23 12 21 14
REMARK SMILES IDX 19 16 9 18 17 19 10 20 15 21 11 22 13 23 16 24 12 26 14 28
REMARK H PARENT 23 13 21 15 19 17 16 25 12 27 14 29
ROOT
ATOM      1  C   UNL     1      24.348 -35.735  21.781  1.00  0.00     0.340 C 
ATOM      2  O   UNL     1      23.584 -36.502  22.345  1.00  0.00    -0.246 OA
ENDROOT
BRANCH   1   3
ATOM      3  O   UNL     1      24.806 -35.834  20.511  1.00  0.00    -0.429 OA
BRANCH   3   4
ATOM      4  C   UNL     1      25.431 -37.081  20.169  1.00  0.00     0.345 C 
ATOM      5  C   UNL     1      24.151 -37.271  18.166  1.00  0.00     0.285 C 
ATOM      6  C   UNL     1      25.385 -37.034  17.278  1.00  0.00     0.202 C 
ATOM      7  O   UNL     1      24.522 -37.883  19.397  1.00  0.00    -0.308 OA
ATOM      8  C   UNL     1      26.408 -36.191  18.029  1.00  0.00     0.183 C 
ATOM      9  C   UNL     1      26.733 -36.832  19.378  1.00  0.00     0.215 C 
BRANCH   5  10
ATOM     10  O   UNL     1      23.274 -38.128  17.418  1.00  0.00    -0.353 OA
ATOM     11  C   UNL     1      23.794 -39.447  17.305  1.00  0.00     0.198 C 
ENDBRANCH   5  10
BRANCH   6  12
ATOM     12  O   UNL     1      25.036 -36.364  16.056  1.00  0.00    -0.385 OA
ATOM     13  H   UNL     1      24.281 -36.870  15.694  1.00  0.00     0.211 HD
ENDBRANCH   6  12
BRANCH   8  14
ATOM     14  O   UNL     1      27.619 -36.078  17.259  1.00  0.00    -0.387 OA
ATOM     15  H   UNL     1      27.420 -36.523  16.409  1.00  0.00     0.211 HD
ENDBRANCH   8  14
BRANCH   9  16
ATOM     16  O   UNL     1      27.652 -35.990  20.083  1.00  0.00    -0.384 OA
ATOM     17  H   UNL     1      27.093 -35.410  20.638  1.00  0.00     0.211 HD
ENDBRANCH   9  16
ENDBRANCH   3   4
ENDBRANCH   1   3
BRANCH   1  18
ATOM     18  C   UNL     1      24.905 -34.523  22.440  1.00  0.00     0.067 A 
ATOM     19  C   UNL     1      25.761 -33.702  21.683  1.00  0.00     0.066 A 
ATOM     20  C   UNL     1      24.606 -34.190  23.770  1.00  0.00     0.066 A 
ATOM     21  C   UNL     1      26.305 -32.560  22.260  1.00  0.00     0.162 A 
ATOM     22  C   UNL     1      25.162 -33.045  24.326  1.00  0.00     0.162 A 
ATOM     23  C   UNL     1      26.006 -32.234  23.578  1.00  0.00     0.200 A 
BRANCH  21  24
ATOM     24  O   UNL     1      27.140 -31.725  21.572  1.00  0.00    -0.504 OA
ATOM     25  H   UNL     1      26.595 -31.092  21.069  1.00  0.00     0.293 HD
ENDBRANCH  21  24
BRANCH  22  26
ATOM     26  O   UNL     1      24.874 -32.723  25.620  1.00  0.00    -0.504 OA
ATOM     27  H   UNL     1      25.704 -32.340  25.971  1.00  0.00     0.293 HD
ENDBRANCH  22  26
BRANCH  23  28
ATOM     28  O   UNL     1      26.536 -31.113  24.157  1.00  0.00    -0.502 OA
ATOM     29  H   UNL     1      27.322 -30.907  23.609  1.00  0.00     0.293 HD
ENDBRANCH  23  28
ENDBRANCH   1  18
TORSDOF 10
ENDMDL
