MODEL 1
REMARK VINA RESULT:    -6.590      0.000      0.000
REMARK INTER + INTRA:          -7.893
REMARK INTER:                  -7.746
REMARK INTRA:                  -0.148
REMARK UNBOUND:                -0.148
REMARK SMILES O=C([O-])/C=C/c1ccc(O)c(O)c1
REMARK SMILES IDX 7 1 8 2 9 3 11 4 13 5 6 6 5 7 4 8 2 9 1 10 3 11 10 12 12 14
REMARK H PARENT 10 13 12 15
ROOT
ATOM      1  C   UNL     1      24.012 -34.676  19.547  1.00  0.00     0.012 A 
ATOM      2  C   UNL     1      24.193 -35.041  20.885  1.00  0.00     0.051 A 
ATOM      3  C   UNL     1      23.466 -36.107  21.396  1.00  0.00     0.157 A 
ATOM      4  C   UNL     1      22.566 -36.798  20.587  1.00  0.00     0.157 A 
ATOM      5  C   UNL     1      22.383 -36.440  19.257  1.00  0.00     0.058 A 
ATOM      6  C   UNL     1      23.117 -35.375  18.718  1.00  0.00    -0.022 A 
ENDROOT
BRANCH   6   7
ATOM      7  C   UNL     1      22.956 -34.920  17.330  1.00  0.00     0.010 C 
ATOM      8  C   UNL     1      23.529 -33.827  16.802  1.00  0.00     0.025 C 
BRANCH   8   9
ATOM      9  C   UNL     1      23.292 -33.405  15.350  1.00  0.00     0.064 C 
ATOM     10  O   UNL     1      24.078 -33.887  14.488  1.00  0.00    -0.545 OA
ATOM     11  O   UNL     1      22.317 -32.614  15.203  1.00  0.00    -0.545 OA
ENDBRANCH   8   9
ENDBRANCH   6   7
BRANCH   3  12
ATOM     12  O   UNL     1      23.598 -36.513  22.697  1.00  0.00    -0.504 OA
ATOM     13  H   UNL     1      22.811 -36.206  23.178  1.00  0.00     0.293 HD
ENDBRANCH   3  12
BRANCH   4  14
ATOM     14  O   UNL     1      21.850 -37.839  21.111  1.00  0.00    -0.504 OA
ATOM     15  H   UNL     1      21.147 -37.998  20.452  1.00  0.00     0.293 HD
ENDBRANCH   4  14
TORSDOF 4
ENDMDL
MODEL 2
REMARK VINA RESULT:    -6.557      1.609      2.033
REMARK INTER + INTRA:          -7.855
REMARK INTER:                  -7.706
REMARK INTRA:                  -0.149
REMARK UNBOUND:                -0.148
REMARK SMILES O=C([O-])/C=C/c1ccc(O)c(O)c1
REMARK SMILES IDX 7 1 8 2 9 3 11 4 13 5 6 6 5 7 4 8 2 9 1 10 3 11 10 12 12 14
REMARK H PARENT 10 13 12 15
ROOT
ATOM      1  C   UNL     1      22.978 -35.592  18.988  1.00  0.00     0.012 A 
ATOM      2  C   UNL     1      22.647 -36.480  20.017  1.00  0.00     0.051 A 
ATOM      3  C   UNL     1      22.955 -37.825  19.869  1.00  0.00     0.157 A 
ATOM      4  C   UNL     1      23.580 -38.282  18.711  1.00  0.00     0.157 A 
ATOM      5  C   UNL     1      23.911 -37.403  17.685  1.00  0.00     0.058 A 
ATOM      6  C   UNL     1      23.621 -36.039  17.820  1.00  0.00    -0.022 A 
ENDROOT
BRANCH   6   7
ATOM      7  C   UNL     1      23.913 -35.057  16.767  1.00  0.00     0.010 C 
ATOM      8  C   UNL     1      23.283 -33.882  16.609  1.00  0.00     0.025 C 
BRANCH   8   9
ATOM      9  C   UNL     1      23.630 -32.921  15.470  1.00  0.00     0.064 C 
ATOM     10  O   UNL     1      24.234 -33.417  14.478  1.00  0.00    -0.545 OA
ATOM     11  O   UNL     1      23.254 -31.732  15.675  1.00  0.00    -0.545 OA
ENDBRANCH   8   9
ENDBRANCH   6   7
BRANCH   3  12
ATOM     12  O   UNL     1      22.658 -38.744  20.840  1.00  0.00    -0.504 OA
ATOM     13  H   UNL     1      23.043 -38.421  21.672  1.00  0.00     0.293 HD
ENDBRANCH   3  12
BRANCH   4  14
ATOM     14  O   UNL     1      23.866 -39.613  18.578  1.00  0.00    -0.504 OA
ATOM     15  H   UNL     1      23.441 -39.864  17.736  1.00  0.00     0.293 HD
ENDBRANCH   4  14
TORSDOF 4
ENDMDL
MODEL 3
REMARK VINA RESULT:    -6.516      2.745      6.821
REMARK INTER + INTRA:          -7.806
REMARK INTER:                  -7.668
REMARK INTRA:                  -0.138
REMARK UNBOUND:                -0.148
REMARK SMILES O=C([O-])/C=C/c1ccc(O)c(O)c1
REMARK SMILES IDX 7 1 8 2 9 3 11 4 13 5 6 6 5 7 4 8 2 9 1 10 3 11 10 12 12 14
REMARK H PARENT 10 13 12 15
ROOT
ATOM      1  C   UNL     1      24.189 -32.423  15.177  1.00  0.00     0.012 A 
ATOM      2  C   UNL     1      24.884 -31.547  14.336  1.00  0.00     0.051 A 
ATOM      3  C   UNL     1      25.951 -32.033  13.593  1.00  0.00     0.157 A 
ATOM      4  C   UNL     1      26.326 -33.371  13.689  1.00  0.00     0.157 A 
ATOM      5  C   UNL     1      25.638 -34.246  14.523  1.00  0.00     0.058 A 
ATOM      6  C   UNL     1      24.550 -33.779  15.272  1.00  0.00    -0.022 A 
ENDROOT
BRANCH   6   7
ATOM      7  C   UNL     1      23.795 -34.636  16.196  1.00  0.00     0.010 C 
ATOM      8  C   UNL     1      23.584 -34.376  17.496  1.00  0.00     0.025 C 
BRANCH   8   9
ATOM      9  C   UNL     1      22.806 -35.333  18.401  1.00  0.00     0.064 C 
ATOM     10  O   UNL     1      21.893 -36.011  17.852  1.00  0.00    -0.545 OA
ATOM     11  O   UNL     1      23.190 -35.320  19.605  1.00  0.00    -0.545 OA
ENDBRANCH   8   9
ENDBRANCH   6   7
BRANCH   3  12
ATOM     12  O   UNL     1      26.671 -31.226  12.752  1.00  0.00    -0.504 OA
ATOM     13  H   UNL     1      26.409 -31.449  11.843  1.00  0.00     0.293 HD
ENDBRANCH   3  12
BRANCH   4  14
ATOM     14  O   UNL     1      27.387 -33.829  12.959  1.00  0.00    -0.504 OA
ATOM     15  H   UNL     1      27.998 -33.070  12.926  1.00  0.00     0.293 HD
ENDBRANCH   4  14
TORSDOF 4
ENDMDL
MODEL 4
REMARK VINA RESULT:    -6.470      0.775      1.811
REMARK INTER + INTRA:          -7.752
REMARK INTER:                  -7.607
REMARK INTRA:                  -0.146
REMARK UNBOUND:                -0.148
REMARK SMILES O=C([O-])/C=C/c1ccc(O)c(O)c1
REMARK SMILES IDX 7 1 8 2 9 3 11 4 13 5 6 6 5 7 4 8 2 9 1 10 3 11 10 12 12 14
REMARK H PARENT 10 13 12 15
ROOT
ATOM      1  C   UNL     1      22.463 -36.125  18.754  1.00  0.00     0.012 A 
ATOM      2  C   UNL     1      22.106 -36.974  19.806  1.00  0.00     0.051 A 
ATOM      3  C   UNL     1      22.718 -36.807  21.042  1.00  0.00     0.157 A 
ATOM      4  C   UNL     1      23.674 -35.811  21.225  1.00  0.00     0.157 A 
ATOM      5  C   UNL     1      24.031 -34.964  20.182  1.00  0.00     0.058 A 
ATOM      6  C   UNL     1      23.417 -35.107  18.931  1.00  0.00    -0.022 A 
ENDROOT
BRANCH   6   7
ATOM      7  C   UNL     1      23.764 -34.270  17.775  1.00  0.00     0.010 C 
ATOM      8  C   UNL     1      23.012 -34.122  16.673  1.00  0.00     0.025 C 
BRANCH   8   9
ATOM      9  C   UNL     1      23.455 -33.249  15.497  1.00  0.00     0.064 C 
ATOM     10  O   UNL     1      23.961 -33.849  14.508  1.00  0.00    -0.545 OA
ATOM     11  O   UNL     1      23.249 -32.015  15.674  1.00  0.00    -0.545 OA
ENDBRANCH   8   9
ENDBRANCH   6   7
BRANCH   3  12
ATOM     12  O   UNL     1      22.412 -37.606  22.111  1.00  0.00    -0.504 OA
ATOM     13  H   UNL     1      22.419 -37.043  22.904  1.00  0.00     0.293 HD
ENDBRANCH   3  12
BRANCH   4  14
ATOM     14  O   UNL     1      24.274 -35.668  22.446  1.00  0.00    -0.504 OA
ATOM     15  H   UNL     1      24.325 -36.579  22.794  1.00  0.00     0.293 HD
ENDBRANCH   4  14
TORSDOF 4
ENDMDL
MODEL 5
REMARK VINA RESULT:    -6.295      2.832      4.194
REMARK INTER + INTRA:          -7.546
REMARK INTER:                  -7.400
REMARK INTRA:                  -0.146
REMARK UNBOUND:                -0.148
REMARK SMILES O=C([O-])/C=C/c1ccc(O)c(O)c1
REMARK SMILES IDX 7 1 8 2 9 3 11 4 13 5 6 6 5 7 4 8 2 9 1 10 3 11 10 12 12 14
REMARK H PARENT 10 13 12 15
ROOT
ATOM      1  C   UNL     1      23.731 -35.436  22.313  1.00  0.00     0.012 A 
ATOM      2  C   UNL     1      23.988 -35.078  23.640  1.00  0.00     0.051 A 
ATOM      3  C   UNL     1      24.656 -33.889  23.898  1.00  0.00     0.157 A 
ATOM      4  C   UNL     1      25.067 -33.069  22.850  1.00  0.00     0.157 A 
ATOM      5  C   UNL     1      24.813 -33.420  21.529  1.00  0.00     0.058 A 
ATOM      6  C   UNL     1      24.128 -34.610  21.247  1.00  0.00    -0.022 A 
ENDROOT
BRANCH   6   7
ATOM      7  C   UNL     1      23.851 -35.061  19.876  1.00  0.00     0.010 C 
ATOM      8  C   UNL     1      22.954 -36.002  19.538  1.00  0.00     0.025 C 
BRANCH   8   9
ATOM      9  C   UNL     1      22.740 -36.436  18.086  1.00  0.00     0.064 C 
ATOM     10  O   UNL     1      23.332 -37.488  17.719  1.00  0.00    -0.545 OA
ATOM     11  O   UNL     1      21.978 -35.668  17.433  1.00  0.00    -0.545 OA
ENDBRANCH   8   9
ENDBRANCH   6   7
BRANCH   3  12
ATOM     12  O   UNL     1      24.938 -33.483  25.176  1.00  0.00    -0.504 OA
ATOM     13  H   UNL     1      25.774 -33.904  25.436  1.00  0.00     0.293 HD
ENDBRANCH   3  12
BRANCH   4  14
ATOM     14  O   UNL     1      25.734 -31.907  23.122  1.00  0.00    -0.504 OA
ATOM     15  H   UNL     1      25.723 -31.850  24.096  1.00  0.00     0.293 HD
ENDBRANCH   4  14
TORSDOF 4
ENDMDL
MODEL 6
REMARK VINA RESULT:    -6.158      1.404      5.934
REMARK INTER + INTRA:          -7.386
REMARK INTER:                  -7.260
REMARK INTRA:                  -0.126
REMARK UNBOUND:                -0.148
REMARK SMILES O=C([O-])/C=C/c1ccc(O)c(O)c1
REMARK SMILES IDX 7 1 8 2 9 3 11 4 13 5 6 6 5 7 4 8 2 9 1 10 3 11 10 12 12 14
REMARK H PARENT 10 13 12 15
ROOT
ATOM      1  C   UNL     1      25.125 -35.712  16.704  1.00  0.00     0.012 A 
ATOM      2  C   UNL     1      25.432 -34.963  15.563  1.00  0.00     0.051 A 
ATOM      3  C   UNL     1      24.590 -33.921  15.196  1.00  0.00     0.157 A 
ATOM      4  C   UNL     1      23.456 -33.632  15.951  1.00  0.00     0.157 A 
ATOM      5  C   UNL     1      23.148 -34.374  17.087  1.00  0.00     0.058 A 
ATOM      6  C   UNL     1      23.991 -35.420  17.482  1.00  0.00    -0.022 A 
ENDROOT
BRANCH   6   7
ATOM      7  C   UNL     1      23.714 -36.265  18.651  1.00  0.00     0.010 C 
ATOM      8  C   UNL     1      22.496 -36.501  19.166  1.00  0.00     0.025 C 
BRANCH   8   9
ATOM      9  C   UNL     1      22.291 -37.376  20.404  1.00  0.00     0.064 C 
ATOM     10  O   UNL     1      21.148 -37.338  20.938  1.00  0.00    -0.545 OA
ATOM     11  O   UNL     1      23.316 -38.038  20.734  1.00  0.00    -0.545 OA
ENDBRANCH   8   9
ENDBRANCH   6   7
BRANCH   3  12
ATOM     12  O   UNL     1      24.836 -33.152  14.091  1.00  0.00    -0.504 OA
ATOM     13  H   UNL     1      25.608 -33.532  13.639  1.00  0.00     0.293 HD
ENDBRANCH   3  12
BRANCH   4  14
ATOM     14  O   UNL     1      22.633 -32.610  15.569  1.00  0.00    -0.504 OA
ATOM     15  H   UNL     1      22.999 -32.318  14.712  1.00  0.00     0.293 HD
ENDBRANCH   4  14
TORSDOF 4
ENDMDL
MODEL 7
REMARK VINA RESULT:    -5.969      4.635      6.123
REMARK INTER + INTRA:          -7.163
REMARK INTER:                  -7.018
REMARK INTRA:                  -0.145
REMARK UNBOUND:                -0.148
REMARK SMILES O=C([O-])/C=C/c1ccc(O)c(O)c1
REMARK SMILES IDX 7 1 8 2 9 3 11 4 13 5 6 6 5 7 4 8 2 9 1 10 3 11 10 12 12 14
REMARK H PARENT 10 13 12 15
ROOT
ATOM      1  C   UNL     1      25.169 -34.772  22.633  1.00  0.00     0.012 A 
ATOM      2  C   UNL     1      25.963 -33.642  22.857  1.00  0.00     0.051 A 
ATOM      3  C   UNL     1      25.442 -32.590  23.599  1.00  0.00     0.157 A 
ATOM      4  C   UNL     1      24.147 -32.661  24.108  1.00  0.00     0.157 A 
ATOM      5  C   UNL     1      23.355 -33.782  23.889  1.00  0.00     0.058 A 
ATOM      6  C   UNL     1      23.866 -34.860  23.154  1.00  0.00    -0.022 A 
ENDROOT
BRANCH   6   7
ATOM      7  C   UNL     1      23.078 -36.063  22.856  1.00  0.00     0.010 C 
ATOM      8  C   UNL     1      23.110 -36.743  21.698  1.00  0.00     0.025 C 
BRANCH   8   9
ATOM      9  C   UNL     1      22.239 -37.977  21.456  1.00  0.00     0.064 C 
ATOM     10  O   UNL     1      21.187 -38.069  22.148  1.00  0.00    -0.545 OA
ATOM     11  O   UNL     1      22.696 -38.757  20.573  1.00  0.00    -0.545 OA
ENDBRANCH   8   9
ENDBRANCH   6   7
BRANCH   3  12
ATOM     12  O   UNL     1      26.168 -31.458  23.853  1.00  0.00    -0.504 OA
ATOM     13  H   UNL     1      25.625 -30.698  23.583  1.00  0.00     0.293 HD
ENDBRANCH   3  12
BRANCH   4  14
ATOM     14  O   UNL     1      23.647 -31.611  24.827  1.00  0.00    -0.504 OA
ATOM     15  H   UNL     1      23.166 -32.035  25.563  1.00  0.00     0.293 HD
ENDBRANCH   4  14
TORSDOF 4
ENDMDL
MODEL 8
REMARK VINA RESULT:    -5.948      2.087      5.927
REMARK INTER + INTRA:          -7.139
REMARK INTER:                  -7.015
REMARK INTRA:                  -0.124
REMARK UNBOUND:                -0.148
REMARK SMILES O=C([O-])/C=C/c1ccc(O)c(O)c1
REMARK SMILES IDX 7 1 8 2 9 3 11 4 13 5 6 6 5 7 4 8 2 9 1 10 3 11 10 12 12 14
REMARK H PARENT 10 13 12 15
ROOT
ATOM      1  C   UNL     1      22.746 -35.293  18.431  1.00  0.00     0.012 A 
ATOM      2  C   UNL     1      23.336 -34.894  17.227  1.00  0.00     0.051 A 
ATOM      3  C   UNL     1      24.332 -35.687  16.672  1.00  0.00     0.157 A 
ATOM      4  C   UNL     1      24.738 -36.857  17.308  1.00  0.00     0.157 A 
ATOM      5  C   UNL     1      24.154 -37.258  18.504  1.00  0.00     0.058 A 
ATOM      6  C   UNL     1      23.139 -36.480  19.075  1.00  0.00    -0.022 A 
ENDROOT
BRANCH   6   7
ATOM      7  C   UNL     1      22.496 -36.824  20.351  1.00  0.00     0.010 C 
ATOM      8  C   UNL     1      22.311 -38.070  20.814  1.00  0.00     0.025 C 
BRANCH   8   9
ATOM      9  C   UNL     1      21.610 -38.348  22.145  1.00  0.00     0.064 C 
ATOM     10  O   UNL     1      21.190 -39.525  22.326  1.00  0.00    -0.545 OA
ATOM     11  O   UNL     1      21.544 -37.340  22.905  1.00  0.00    -0.545 OA
ENDBRANCH   8   9
ENDBRANCH   6   7
BRANCH   3  12
ATOM     12  O   UNL     1      24.948 -35.351  15.496  1.00  0.00    -0.504 OA
ATOM     13  H   UNL     1      24.273 -34.957  14.917  1.00  0.00     0.293 HD
ENDBRANCH   3  12
BRANCH   4  14
ATOM     14  O   UNL     1      25.728 -37.619  16.752  1.00  0.00    -0.504 OA
ATOM     15  H   UNL     1      26.300 -37.854  17.507  1.00  0.00     0.293 HD
ENDBRANCH   4  14
TORSDOF 4
ENDMDL
MODEL 9
REMARK VINA RESULT:    -5.835      2.761      3.977
REMARK INTER + INTRA:          -7.005
REMARK INTER:                  -6.858
REMARK INTRA:                  -0.148
REMARK UNBOUND:                -0.148
REMARK SMILES O=C([O-])/C=C/c1ccc(O)c(O)c1
REMARK SMILES IDX 7 1 8 2 9 3 11 4 13 5 6 6 5 7 4 8 2 9 1 10 3 11 10 12 12 14
REMARK H PARENT 10 13 12 15
ROOT
ATOM      1  C   UNL     1      25.590 -34.393  20.831  1.00  0.00     0.012 A 
ATOM      2  C   UNL     1      26.413 -33.752  21.762  1.00  0.00     0.051 A 
ATOM      3  C   UNL     1      25.975 -33.626  23.073  1.00  0.00     0.157 A 
ATOM      4  C   UNL     1      24.732 -34.128  23.451  1.00  0.00     0.157 A 
ATOM      5  C   UNL     1      23.910 -34.767  22.530  1.00  0.00     0.058 A 
ATOM      6  C   UNL     1      24.339 -34.916  21.204  1.00  0.00    -0.022 A 
ENDROOT
BRANCH   6   7
ATOM      7  C   UNL     1      23.515 -35.553  20.169  1.00  0.00     0.010 C 
ATOM      8  C   UNL     1      23.826 -35.620  18.864  1.00  0.00     0.025 C 
BRANCH   8   9
ATOM      9  C   UNL     1      22.900 -36.281  17.841  1.00  0.00     0.064 C 
ATOM     10  O   UNL     1      21.872 -35.628  17.507  1.00  0.00    -0.545 OA
ATOM     11  O   UNL     1      23.297 -37.416  17.453  1.00  0.00    -0.545 OA
ENDBRANCH   8   9
ENDBRANCH   6   7
BRANCH   3  12
ATOM     12  O   UNL     1      26.734 -33.009  24.031  1.00  0.00    -0.504 OA
ATOM     13  H   UNL     1      26.205 -32.277  24.393  1.00  0.00     0.293 HD
ENDBRANCH   3  12
BRANCH   4  14
ATOM     14  O   UNL     1      24.311 -33.985  24.745  1.00  0.00    -0.504 OA
ATOM     15  H   UNL     1      23.710 -34.741  24.884  1.00  0.00     0.293 HD
ENDBRANCH   4  14
TORSDOF 4
ENDMDL
