MODEL 1
REMARK VINA RESULT:    -4.975      0.000      0.000
REMARK INTER + INTRA:          -6.466
REMARK INTER:                  -5.993
REMARK INTRA:                  -0.472
REMARK UNBOUND:                -0.472
REMARK SMILES O=C1O[C@H]([C@@H](O)CO)C([O-])=C1O
REMARK SMILES IDX 5 1 7 2 8 3 4 5 9 6 3 7 11 8 2 9 1 10 10 11 12 12 6 14
REMARK H PARENT 8 4 12 13 6 15
ROOT
ATOM      1  C   UNL     1      23.711 -40.686  14.134  1.00  0.00     0.184 C 
ENDROOT
BRANCH   1   2
ATOM      2  C   UNL     1      23.679 -40.603  15.664  1.00  0.00     0.192 C 
BRANCH   2   3
ATOM      3  O   UNL     1      22.324 -40.779  16.108  1.00  0.00    -0.394 OA
ATOM      4  H   UNL     1      22.002 -39.860  16.217  1.00  0.00     0.210 HD
ENDBRANCH   2   3
ENDBRANCH   1   2
BRANCH   1   5
ATOM      5  C   UNL     1      23.748 -42.130  13.579  1.00  0.00     0.227 C 
ATOM      6  C   UNL     1      23.497 -42.257  12.098  1.00  0.00    -0.037 C 
ATOM      7  O   UNL     1      22.726 -42.929  14.202  1.00  0.00    -0.450 OA
ATOM      8  C   UNL     1      22.457 -43.072  11.927  1.00  0.00     0.193 C 
ATOM      9  C   UNL     1      21.956 -43.515  13.237  1.00  0.00     0.373 C 
ATOM     10  O   UNL     1      21.015 -44.261  13.456  1.00  0.00    -0.243 OA
ATOM     11  O   UNL     1      24.251 -41.624  11.312  1.00  0.00    -0.870 OA
BRANCH   8  12
ATOM     12  O   UNL     1      21.955 -43.413  10.700  1.00  0.00    -0.502 OA
ATOM     13  H   UNL     1      21.003 -43.211  10.838  1.00  0.00     0.293 HD
ENDBRANCH   8  12
ENDBRANCH   1   5
BRANCH   1  14
ATOM     14  O   UNL     1      22.567 -39.959  13.631  1.00  0.00    -0.387 OA
ATOM     15  H   UNL     1      21.983 -40.683  13.276  1.00  0.00     0.211 HD
ENDBRANCH   1  14
TORSDOF 5
ENDMDL
MODEL 2
REMARK VINA RESULT:    -4.898      5.176      7.877
REMARK INTER + INTRA:          -6.373
REMARK INTER:                  -5.752
REMARK INTRA:                  -0.621
REMARK UNBOUND:                -0.472
REMARK SMILES O=C1O[C@H]([C@@H](O)CO)C([O-])=C1O
REMARK SMILES IDX 5 1 7 2 8 3 4 5 9 6 3 7 11 8 2 9 1 10 10 11 12 12 6 14
REMARK H PARENT 8 4 12 13 6 15
ROOT
ATOM      1  C   UNL     1      25.476 -38.497  17.838  1.00  0.00     0.184 C 
ENDROOT
BRANCH   1   2
ATOM      2  C   UNL     1      25.131 -38.653  16.353  1.00  0.00     0.192 C 
BRANCH   2   3
ATOM      3  O   UNL     1      23.775 -39.113  16.240  1.00  0.00    -0.394 OA
ATOM      4  H   UNL     1      23.603 -39.524  17.114  1.00  0.00     0.210 HD
ENDBRANCH   2   3
ENDBRANCH   1   2
BRANCH   1   5
ATOM      5  C   UNL     1      24.896 -37.221  18.493  1.00  0.00     0.227 C 
ATOM      6  C   UNL     1      24.013 -37.456  19.691  1.00  0.00    -0.037 C 
ATOM      7  O   UNL     1      24.069 -36.511  17.552  1.00  0.00    -0.450 OA
ATOM      8  C   UNL     1      22.828 -36.901  19.443  1.00  0.00     0.193 C 
ATOM      9  C   UNL     1      22.838 -36.294  18.104  1.00  0.00     0.373 C 
ATOM     10  O   UNL     1      21.922 -35.706  17.551  1.00  0.00    -0.243 OA
ATOM     11  O   UNL     1      24.496 -38.089  20.668  1.00  0.00    -0.870 OA
BRANCH   8  12
ATOM     12  O   UNL     1      21.780 -36.925  20.324  1.00  0.00    -0.502 OA
ATOM     13  H   UNL     1      22.138 -36.350  21.036  1.00  0.00     0.293 HD
ENDBRANCH   8  12
ENDBRANCH   1   5
BRANCH   1  14
ATOM     14  O   UNL     1      25.026 -39.688  18.521  1.00  0.00    -0.387 OA
ATOM     15  H   UNL     1      25.764 -40.334  18.350  1.00  0.00     0.211 HD
ENDBRANCH   1  14
TORSDOF 5
ENDMDL
MODEL 3
REMARK VINA RESULT:    -4.877      3.136      4.891
REMARK INTER + INTRA:          -6.348
REMARK INTER:                  -5.734
REMARK INTRA:                  -0.614
REMARK UNBOUND:                -0.472
REMARK SMILES O=C1O[C@H]([C@@H](O)CO)C([O-])=C1O
REMARK SMILES IDX 5 1 7 2 8 3 4 5 9 6 3 7 11 8 2 9 1 10 10 11 12 12 6 14
REMARK H PARENT 8 4 12 13 6 15
ROOT
ATOM      1  C   UNL     1      24.202 -38.841  17.853  1.00  0.00     0.184 C 
ENDROOT
BRANCH   1   2
ATOM      2  C   UNL     1      25.573 -38.665  18.517  1.00  0.00     0.192 C 
BRANCH   2   3
ATOM      3  O   UNL     1      26.109 -39.963  18.819  1.00  0.00    -0.394 OA
ATOM      4  H   UNL     1      26.855 -39.763  19.423  1.00  0.00     0.210 HD
ENDBRANCH   2   3
ENDBRANCH   1   2
BRANCH   1   5
ATOM      5  C   UNL     1      24.268 -39.179  16.344  1.00  0.00     0.227 C 
ATOM      6  C   UNL     1      23.617 -40.478  15.946  1.00  0.00    -0.037 C 
ATOM      7  O   UNL     1      25.638 -39.300  15.921  1.00  0.00    -0.450 OA
ATOM      8  C   UNL     1      24.535 -41.226  15.336  1.00  0.00     0.193 C 
ATOM      9  C   UNL     1      25.816 -40.505  15.302  1.00  0.00     0.373 C 
ATOM     10  O   UNL     1      26.871 -40.892  14.824  1.00  0.00    -0.243 OA
ATOM     11  O   UNL     1      22.400 -40.643  16.228  1.00  0.00    -0.870 OA
BRANCH   8  12
ATOM     12  O   UNL     1      24.285 -42.478  14.840  1.00  0.00    -0.502 OA
ATOM     13  H   UNL     1      25.173 -42.707  14.488  1.00  0.00     0.293 HD
ENDBRANCH   8  12
ENDBRANCH   1   5
BRANCH   1  14
ATOM     14  O   UNL     1      23.486 -39.859  18.588  1.00  0.00    -0.387 OA
ATOM     15  H   UNL     1      24.040 -39.972  19.407  1.00  0.00     0.211 HD
ENDBRANCH   1  14
TORSDOF 5
ENDMDL
MODEL 4
REMARK VINA RESULT:    -4.793      1.955      4.542
REMARK INTER + INTRA:          -6.246
REMARK INTER:                  -5.626
REMARK INTRA:                  -0.620
REMARK UNBOUND:                -0.472
REMARK SMILES O=C1O[C@H]([C@@H](O)CO)C([O-])=C1O
REMARK SMILES IDX 5 1 7 2 8 3 4 5 9 6 3 7 11 8 2 9 1 10 10 11 12 12 6 14
REMARK H PARENT 8 4 12 13 6 15
ROOT
ATOM      1  C   UNL     1      23.243 -42.965  13.629  1.00  0.00     0.184 C 
ENDROOT
BRANCH   1   2
ATOM      2  C   UNL     1      23.044 -42.046  12.418  1.00  0.00     0.192 C 
BRANCH   2   3
ATOM      3  O   UNL     1      24.225 -42.098  11.601  1.00  0.00    -0.394 OA
ATOM      4  H   UNL     1      24.951 -41.970  12.247  1.00  0.00     0.210 HD
ENDBRANCH   2   3
ENDBRANCH   1   2
BRANCH   1   5
ATOM      5  C   UNL     1      24.128 -42.360  14.744  1.00  0.00     0.227 C 
ATOM      6  C   UNL     1      23.741 -40.975  15.194  1.00  0.00    -0.037 C 
ATOM      7  O   UNL     1      25.488 -42.239  14.289  1.00  0.00    -0.450 OA
ATOM      8  C   UNL     1      24.797 -40.180  15.029  1.00  0.00     0.193 C 
ATOM      9  C   UNL     1      25.914 -40.952  14.466  1.00  0.00     0.373 C 
ATOM     10  O   UNL     1      27.029 -40.544  14.184  1.00  0.00    -0.243 OA
ATOM     11  O   UNL     1      22.569 -40.797  15.624  1.00  0.00    -0.870 OA
BRANCH   8  12
ATOM     12  O   UNL     1      24.797 -38.846  15.341  1.00  0.00    -0.502 OA
ATOM     13  H   UNL     1      25.326 -38.860  16.169  1.00  0.00     0.293 HD
ENDBRANCH   8  12
ENDBRANCH   1   5
BRANCH   1  14
ATOM     14  O   UNL     1      21.935 -43.319  14.131  1.00  0.00    -0.387 OA
ATOM     15  H   UNL     1      21.539 -43.832  13.376  1.00  0.00     0.211 HD
ENDBRANCH   1  14
TORSDOF 5
ENDMDL
MODEL 5
REMARK VINA RESULT:    -4.763      6.557      8.478
REMARK INTER + INTRA:          -6.210
REMARK INTER:                  -5.600
REMARK INTRA:                  -0.610
REMARK UNBOUND:                -0.472
REMARK SMILES O=C1O[C@H]([C@@H](O)CO)C([O-])=C1O
REMARK SMILES IDX 5 1 7 2 8 3 4 5 9 6 3 7 11 8 2 9 1 10 10 11 12 12 6 14
REMARK H PARENT 8 4 12 13 6 15
ROOT
ATOM      1  C   UNL     1      23.474 -36.923  21.299  1.00  0.00     0.184 C 
ENDROOT
BRANCH   1   2
ATOM      2  C   UNL     1      23.786 -35.454  21.606  1.00  0.00     0.192 C 
BRANCH   2   3
ATOM      3  O   UNL     1      24.904 -35.042  20.802  1.00  0.00    -0.394 OA
ATOM      4  H   UNL     1      24.851 -35.636  20.023  1.00  0.00     0.210 HD
ENDBRANCH   2   3
ENDBRANCH   1   2
BRANCH   1   5
ATOM      5  C   UNL     1      22.671 -37.139  19.994  1.00  0.00     0.227 C 
ATOM      6  C   UNL     1      23.357 -37.979  18.947  1.00  0.00    -0.037 C 
ATOM      7  O   UNL     1      22.415 -35.876  19.352  1.00  0.00    -0.450 OA
ATOM      8  C   UNL     1      23.440 -37.256  17.831  1.00  0.00     0.193 C 
ATOM      9  C   UNL     1      22.849 -35.929  18.057  1.00  0.00     0.373 C 
ATOM     10  O   UNL     1      22.758 -35.013  17.256  1.00  0.00    -0.243 OA
ATOM     11  O   UNL     1      23.716 -39.145  19.264  1.00  0.00    -0.870 OA
BRANCH   8  12
ATOM     12  O   UNL     1      24.009 -37.714  16.673  1.00  0.00    -0.502 OA
ATOM     13  H   UNL     1      23.343 -38.385  16.405  1.00  0.00     0.293 HD
ENDBRANCH   8  12
ENDBRANCH   1   5
BRANCH   1  14
ATOM     14  O   UNL     1      24.727 -37.642  21.269  1.00  0.00    -0.387 OA
ATOM     15  H   UNL     1      24.483 -38.493  20.814  1.00  0.00     0.211 HD
ENDBRANCH   1  14
TORSDOF 5
ENDMDL
MODEL 6
REMARK VINA RESULT:    -4.705      2.416      4.001
REMARK INTER + INTRA:          -6.140
REMARK INTER:                  -5.652
REMARK INTRA:                  -0.488
REMARK UNBOUND:                -0.472
REMARK SMILES O=C1O[C@H]([C@@H](O)CO)C([O-])=C1O
REMARK SMILES IDX 5 1 7 2 8 3 4 5 9 6 3 7 11 8 2 9 1 10 10 11 12 12 6 14
REMARK H PARENT 8 4 12 13 6 15
ROOT
ATOM      1  C   UNL     1      26.594 -41.447  13.892  1.00  0.00     0.184 C 
ENDROOT
BRANCH   1   2
ATOM      2  C   UNL     1      26.807 -42.965  13.870  1.00  0.00     0.192 C 
BRANCH   2   3
ATOM      3  O   UNL     1      26.516 -43.451  12.549  1.00  0.00    -0.394 OA
ATOM      4  H   UNL     1      27.169 -42.982  11.988  1.00  0.00     0.210 HD
ENDBRANCH   2   3
ENDBRANCH   1   2
BRANCH   1   5
ATOM      5  C   UNL     1      25.127 -41.010  13.663  1.00  0.00     0.227 C 
ATOM      6  C   UNL     1      24.477 -40.303  14.824  1.00  0.00    -0.037 C 
ATOM      7  O   UNL     1      24.299 -42.161  13.413  1.00  0.00    -0.450 OA
ATOM      8  C   UNL     1      23.381 -40.985  15.157  1.00  0.00     0.193 C 
ATOM      9  C   UNL     1      23.243 -42.156  14.280  1.00  0.00     0.373 C 
ATOM     10  O   UNL     1      22.360 -42.999  14.304  1.00  0.00    -0.243 OA
ATOM     11  O   UNL     1      25.026 -39.258  15.266  1.00  0.00    -0.870 OA
BRANCH   8  12
ATOM     12  O   UNL     1      22.543 -40.620  16.177  1.00  0.00    -0.502 OA
ATOM     13  H   UNL     1      21.828 -41.284  16.061  1.00  0.00     0.293 HD
ENDBRANCH   8  12
ENDBRANCH   1   5
BRANCH   1  14
ATOM     14  O   UNL     1      27.099 -40.951  15.153  1.00  0.00    -0.387 OA
ATOM     15  H   UNL     1      27.212 -39.977  14.978  1.00  0.00     0.211 HD
ENDBRANCH   1  14
TORSDOF 5
ENDMDL
MODEL 7
REMARK VINA RESULT:    -4.656      1.246      4.241
REMARK INTER + INTRA:          -6.081
REMARK INTER:                  -5.547
REMARK INTRA:                  -0.533
REMARK UNBOUND:                -0.472
REMARK SMILES O=C1O[C@H]([C@@H](O)CO)C([O-])=C1O
REMARK SMILES IDX 5 1 7 2 8 3 4 5 9 6 3 7 11 8 2 9 1 10 10 11 12 12 6 14
REMARK H PARENT 8 4 12 13 6 15
ROOT
ATOM      1  C   UNL     1      22.028 -43.977  12.561  1.00  0.00     0.184 C 
ENDROOT
BRANCH   1   2
ATOM      2  C   UNL     1      21.188 -43.259  11.498  1.00  0.00     0.192 C 
BRANCH   2   3
ATOM      3  O   UNL     1      21.682 -43.620  10.198  1.00  0.00    -0.394 OA
ATOM      4  H   UNL     1      22.055 -44.515  10.340  1.00  0.00     0.210 HD
ENDBRANCH   2   3
ENDBRANCH   1   2
BRANCH   1   5
ATOM      5  C   UNL     1      23.368 -43.276  12.888  1.00  0.00     0.227 C 
ATOM      6  C   UNL     1      23.266 -42.092  13.815  1.00  0.00    -0.037 C 
ATOM      7  O   UNL     1      23.966 -42.759  11.684  1.00  0.00    -0.450 OA
ATOM      8  C   UNL     1      23.786 -41.036  13.191  1.00  0.00     0.193 C 
ATOM      9  C   UNL     1      24.240 -41.430  11.849  1.00  0.00     0.373 C 
ATOM     10  O   UNL     1      24.760 -40.718  11.005  1.00  0.00    -0.243 OA
ATOM     11  O   UNL     1      22.747 -42.271  14.949  1.00  0.00    -0.870 OA
BRANCH   8  12
ATOM     12  O   UNL     1      23.858 -39.787  13.747  1.00  0.00    -0.502 OA
ATOM     13  H   UNL     1      23.700 -40.007  14.691  1.00  0.00     0.293 HD
ENDBRANCH   8  12
ENDBRANCH   1   5
BRANCH   1  14
ATOM     14  O   UNL     1      21.210 -44.124  13.743  1.00  0.00    -0.387 OA
ATOM     15  H   UNL     1      21.842 -43.898  14.478  1.00  0.00     0.211 HD
ENDBRANCH   1  14
TORSDOF 5
ENDMDL
MODEL 8
REMARK VINA RESULT:    -4.597      6.407      9.492
REMARK INTER + INTRA:          -6.010
REMARK INTER:                  -5.473
REMARK INTRA:                  -0.537
REMARK UNBOUND:                -0.472
REMARK SMILES O=C1O[C@H]([C@@H](O)CO)C([O-])=C1O
REMARK SMILES IDX 5 1 7 2 8 3 4 5 9 6 3 7 11 8 2 9 1 10 10 11 12 12 6 14
REMARK H PARENT 8 4 12 13 6 15
ROOT
ATOM      1  C   UNL     1      24.361 -37.390  19.056  1.00  0.00     0.184 C 
ENDROOT
BRANCH   1   2
ATOM      2  C   UNL     1      23.861 -38.424  18.041  1.00  0.00     0.192 C 
BRANCH   2   3
ATOM      3  O   UNL     1      23.688 -39.683  18.711  1.00  0.00    -0.394 OA
ATOM      4  H   UNL     1      24.349 -40.262  18.277  1.00  0.00     0.210 HD
ENDBRANCH   2   3
ENDBRANCH   1   2
BRANCH   1   5
ATOM      5  C   UNL     1      23.236 -36.706  19.870  1.00  0.00     0.227 C 
ATOM      6  C   UNL     1      23.680 -36.032  21.142  1.00  0.00    -0.037 C 
ATOM      7  O   UNL     1      22.259 -37.679  20.283  1.00  0.00    -0.450 OA
ATOM      8  C   UNL     1      22.990 -36.563  22.150  1.00  0.00     0.193 C 
ATOM      9  C   UNL     1      22.083 -37.599  21.636  1.00  0.00     0.373 C 
ATOM     10  O   UNL     1      21.309 -38.290  22.278  1.00  0.00    -0.243 OA
ATOM     11  O   UNL     1      24.566 -35.138  21.062  1.00  0.00    -0.870 OA
BRANCH   8  12
ATOM     12  O   UNL     1      23.141 -36.179  23.456  1.00  0.00    -0.502 OA
ATOM     13  H   UNL     1      22.280 -36.474  23.825  1.00  0.00     0.293 HD
ENDBRANCH   8  12
ENDBRANCH   1   5
BRANCH   1  14
ATOM     14  O   UNL     1      25.309 -38.051  19.924  1.00  0.00    -0.387 OA
ATOM     15  H   UNL     1      26.185 -37.711  19.595  1.00  0.00     0.211 HD
ENDBRANCH   1  14
TORSDOF 5
ENDMDL
MODEL 9
REMARK VINA RESULT:    -4.554      1.952      4.463
REMARK INTER + INTRA:          -5.958
REMARK INTER:                  -5.347
REMARK INTRA:                  -0.611
REMARK UNBOUND:                -0.472
REMARK SMILES O=C1O[C@H]([C@@H](O)CO)C([O-])=C1O
REMARK SMILES IDX 5 1 7 2 8 3 4 5 9 6 3 7 11 8 2 9 1 10 10 11 12 12 6 14
REMARK H PARENT 8 4 12 13 6 15
ROOT
ATOM      1  C   UNL     1      24.996 -42.939  12.739  1.00  0.00     0.184 C 
ENDROOT
BRANCH   1   2
ATOM      2  C   UNL     1      24.784 -41.722  11.831  1.00  0.00     0.192 C 
BRANCH   2   3
ATOM      3  O   UNL     1      26.010 -40.976  11.766  1.00  0.00    -0.394 OA
ATOM      4  H   UNL     1      26.128 -40.820  10.805  1.00  0.00     0.210 HD
ENDBRANCH   2   3
ENDBRANCH   1   2
BRANCH   1   5
ATOM      5  C   UNL     1      24.885 -42.628  14.251  1.00  0.00     0.227 C 
ATOM      6  C   UNL     1      23.538 -42.128  14.708  1.00  0.00    -0.037 C 
ATOM      7  O   UNL     1      25.813 -41.590  14.615  1.00  0.00    -0.450 OA
ATOM      8  C   UNL     1      23.718 -40.945  15.294  1.00  0.00     0.193 C 
ATOM      9  C   UNL     1      25.143 -40.585  15.254  1.00  0.00     0.373 C 
ATOM     10  O   UNL     1      25.663 -39.572  15.693  1.00  0.00    -0.243 OA
ATOM     11  O   UNL     1      22.530 -42.851  14.485  1.00  0.00    -0.870 OA
BRANCH   8  12
ATOM     12  O   UNL     1      22.699 -40.203  15.830  1.00  0.00    -0.502 OA
ATOM     13  H   UNL     1      23.214 -39.570  16.377  1.00  0.00     0.293 HD
ENDBRANCH   8  12
ENDBRANCH   1   5
BRANCH   1  14
ATOM     14  O   UNL     1      24.048 -43.955  12.341  1.00  0.00    -0.387 OA
ATOM     15  H   UNL     1      24.605 -44.779  12.313  1.00  0.00     0.211 HD
ENDBRANCH   1  14
TORSDOF 5
ENDMDL
