MODEL 1
REMARK VINA RESULT:    -8.810      0.000      0.000
REMARK INTER + INTRA:         -16.022
REMARK INTER:                 -14.733
REMARK INTRA:                  -1.289
REMARK UNBOUND:                -1.289
REMARK SMILES C[C@@H]1O[C@@H](OC[C@H]2O[C@@H](OCC(O)c3ccc(O)c(O)c3)[C@H](O)[C@@H](O)[C@@H]2O)[C@H](O)[C@H](O)[C@H]1O
REMARK SMILES IDX 7 1 26 2 24 3 22 4 9 5 8 6 6 7 5 8 4 9 2 10 32 11 3 12 30 13
REMARK SMILES IDX 28 14 1 15 33 16 31 18 29 20 27 22 25 24 10 26 11 27 12 28
REMARK SMILES IDX 14 29 21 30 15 31 19 32 16 33 17 34 20 35 18 37 13 39 23 41
REMARK H PARENT 33 17 31 19 29 21 27 23 25 25 20 36 18 38 13 40 23 42
ROOT
ATOM      1  C   UNL     1      23.534 -36.494  20.704  1.00  0.00     0.178 C 
ATOM      2  C   UNL     1      24.915 -37.056  20.336  1.00  0.00     0.177 C 
ATOM      3  C   UNL     1      24.855 -37.719  18.961  1.00  0.00     0.179 C 
ATOM      4  C   UNL     1      24.286 -36.751  17.931  1.00  0.00     0.202 C 
ATOM      5  C   UNL     1      22.925 -36.217  18.417  1.00  0.00     0.282 C 
ATOM      6  O   UNL     1      23.074 -35.578  19.686  1.00  0.00    -0.341 OA
ENDROOT
BRANCH   1   7
ATOM      7  C   UNL     1      23.595 -35.755  22.051  1.00  0.00     0.198 C 
BRANCH   7   8
ATOM      8  O   UNL     1      24.626 -34.761  21.991  1.00  0.00    -0.347 OA
BRANCH   8   9
ATOM      9  C   UNL     1      24.171 -33.459  22.366  1.00  0.00     0.281 C 
ATOM     10  C   UNL     1      26.362 -32.499  22.212  1.00  0.00     0.150 C 
ATOM     11  C   UNL     1      26.425 -32.229  23.725  1.00  0.00     0.174 C 
ATOM     12  O   UNL     1      25.012 -32.473  21.746  1.00  0.00    -0.344 OA
ATOM     13  C   UNL     1      25.550 -33.253  24.461  1.00  0.00     0.179 C 
ATOM     14  C   UNL     1      24.129 -33.269  23.897  1.00  0.00     0.202 C 
ATOM     15  C   UNL     1      27.133 -31.450  21.418  1.00  0.00     0.041 C 
BRANCH  11  16
ATOM     16  O   UNL     1      27.774 -32.306  24.228  1.00  0.00    -0.388 OA
ATOM     17  H   UNL     1      27.760 -33.004  24.911  1.00  0.00     0.211 HD
ENDBRANCH  11  16
BRANCH  13  18
ATOM     18  O   UNL     1      25.487 -32.919  25.860  1.00  0.00    -0.387 OA
ATOM     19  H   UNL     1      26.407 -32.981  26.187  1.00  0.00     0.211 HD
ENDBRANCH  13  18
BRANCH  14  20
ATOM     20  O   UNL     1      23.471 -32.040  24.254  1.00  0.00    -0.385 OA
ATOM     21  H   UNL     1      22.686 -32.003  23.669  1.00  0.00     0.211 HD
ENDBRANCH  14  20
ENDBRANCH   8   9
ENDBRANCH   7   8
ENDBRANCH   1   7
BRANCH   2  22
ATOM     22  O   UNL     1      25.357 -38.016  21.298  1.00  0.00    -0.387 OA
ATOM     23  H   UNL     1      26.293 -38.194  21.072  1.00  0.00     0.211 HD
ENDBRANCH   2  22
BRANCH   3  24
ATOM     24  O   UNL     1      26.177 -38.134  18.584  1.00  0.00    -0.387 OA
ATOM     25  H   UNL     1      26.706 -37.310  18.563  1.00  0.00     0.211 HD
ENDBRANCH   3  24
BRANCH   5  26
ATOM     26  O   UNL     1      22.499 -35.273  17.430  1.00  0.00    -0.347 OA
BRANCH  26  27
ATOM     27  C   UNL     1      23.314 -34.100  17.326  1.00  0.00     0.200 C 
BRANCH  27  28
ATOM     28  C   UNL     1      23.320 -33.399  15.950  1.00  0.00     0.170 C 
BRANCH  28  29
ATOM     29  C   UNL     1      24.588 -33.458  15.117  1.00  0.00    -0.013 A 
ATOM     30  C   UNL     1      24.950 -32.319  14.372  1.00  0.00     0.056 A 
ATOM     31  C   UNL     1      25.402 -34.600  15.021  1.00  0.00     0.010 A 
ATOM     32  C   UNL     1      26.103 -32.320  13.595  1.00  0.00     0.157 A 
ATOM     33  C   UNL     1      26.550 -34.602  14.221  1.00  0.00     0.050 A 
ATOM     34  C   UNL     1      26.892 -33.460  13.514  1.00  0.00     0.157 A 
BRANCH  32  35
ATOM     35  O   UNL     1      26.511 -31.205  12.914  1.00  0.00    -0.504 OA
ATOM     36  H   UNL     1      27.354 -31.428  12.455  1.00  0.00     0.293 HD
ENDBRANCH  32  35
BRANCH  34  37
ATOM     37  O   UNL     1      28.018 -33.462  12.743  1.00  0.00    -0.504 OA
ATOM     38  H   UNL     1      27.923 -32.675  12.170  1.00  0.00     0.293 HD
ENDBRANCH  34  37
ENDBRANCH  28  29
BRANCH  28  39
ATOM     39  O   UNL     1      22.905 -32.038  16.100  1.00  0.00    -0.386 OA
ATOM     40  H   UNL     1      22.503 -31.777  15.243  1.00  0.00     0.211 HD
ENDBRANCH  28  39
ENDBRANCH  27  28
ENDBRANCH  26  27
ENDBRANCH   5  26
BRANCH   4  41
ATOM     41  O   UNL     1      24.166 -37.433  16.672  1.00  0.00    -0.385 OA
ATOM     42  H   UNL     1      23.989 -38.367  16.902  1.00  0.00     0.211 HD
ENDBRANCH   4  41
TORSDOF 16
ENDMDL
MODEL 2
REMARK VINA RESULT:    -8.346      1.159      1.594
REMARK INTER + INTRA:         -15.245
REMARK INTER:                 -14.260
REMARK INTRA:                  -0.985
REMARK UNBOUND:                -1.289
REMARK SMILES C[C@@H]1O[C@@H](OC[C@H]2O[C@@H](OCC(O)c3ccc(O)c(O)c3)[C@H](O)[C@@H](O)[C@@H]2O)[C@H](O)[C@H](O)[C@H]1O
REMARK SMILES IDX 7 1 26 2 24 3 22 4 9 5 8 6 6 7 5 8 4 9 2 10 32 11 3 12 30 13
REMARK SMILES IDX 28 14 1 15 33 16 31 18 29 20 27 22 25 24 10 26 11 27 12 28
REMARK SMILES IDX 14 29 21 30 15 31 19 32 16 33 17 34 20 35 18 37 13 39 23 41
REMARK H PARENT 33 17 31 19 29 21 27 23 25 25 20 36 18 38 13 40 23 42
ROOT
ATOM      1  C   UNL     1      25.461 -35.865  19.817  1.00  0.00     0.178 C 
ATOM      2  C   UNL     1      26.351 -36.953  19.197  1.00  0.00     0.177 C 
ATOM      3  C   UNL     1      25.493 -37.931  18.397  1.00  0.00     0.179 C 
ATOM      4  C   UNL     1      24.637 -37.181  17.384  1.00  0.00     0.202 C 
ATOM      5  C   UNL     1      23.820 -36.091  18.103  1.00  0.00     0.282 C 
ATOM      6  O   UNL     1      24.696 -35.195  18.791  1.00  0.00    -0.341 OA
ENDROOT
BRANCH   1   7
ATOM      7  C   UNL     1      26.317 -34.827  20.560  1.00  0.00     0.198 C 
BRANCH   7   8
ATOM      8  O   UNL     1      25.793 -34.650  21.881  1.00  0.00    -0.347 OA
BRANCH   8   9
ATOM      9  C   UNL     1      24.971 -33.487  22.006  1.00  0.00     0.281 C 
ATOM     10  C   UNL     1      26.817 -32.079  22.605  1.00  0.00     0.150 C 
ATOM     11  C   UNL     1      26.271 -31.851  24.024  1.00  0.00     0.174 C 
ATOM     12  O   UNL     1      25.753 -32.325  21.684  1.00  0.00    -0.344 OA
ATOM     13  C   UNL     1      25.424 -33.060  24.444  1.00  0.00     0.179 C 
ATOM     14  C   UNL     1      24.340 -33.359  23.408  1.00  0.00     0.202 C 
ATOM     15  C   UNL     1      27.585 -30.866  22.092  1.00  0.00     0.041 C 
BRANCH  11  16
ATOM     16  O   UNL     1      27.332 -31.657  24.982  1.00  0.00    -0.388 OA
ATOM     17  H   UNL     1      27.538 -32.546  25.329  1.00  0.00     0.211 HD
ENDBRANCH  11  16
BRANCH  13  18
ATOM     18  O   UNL     1      24.792 -32.792  25.709  1.00  0.00    -0.387 OA
ATOM     19  H   UNL     1      24.483 -31.865  25.658  1.00  0.00     0.211 HD
ENDBRANCH  13  18
BRANCH  14  20
ATOM     20  O   UNL     1      23.356 -32.310  23.446  1.00  0.00    -0.385 OA
ATOM     21  H   UNL     1      23.821 -31.523  23.094  1.00  0.00     0.211 HD
ENDBRANCH  14  20
ENDBRANCH   8   9
ENDBRANCH   7   8
ENDBRANCH   1   7
BRANCH   2  22
ATOM     22  O   UNL     1      27.066 -37.673  20.203  1.00  0.00    -0.387 OA
ATOM     23  H   UNL     1      27.355 -36.995  20.848  1.00  0.00     0.211 HD
ENDBRANCH   2  22
BRANCH   3  24
ATOM     24  O   UNL     1      26.352 -38.870  17.732  1.00  0.00    -0.387 OA
ATOM     25  H   UNL     1      26.135 -39.739  18.128  1.00  0.00     0.211 HD
ENDBRANCH   3  24
BRANCH   5  26
ATOM     26  O   UNL     1      23.104 -35.398  17.076  1.00  0.00    -0.347 OA
BRANCH  26  27
ATOM     27  C   UNL     1      23.589 -34.081  16.785  1.00  0.00     0.200 C 
BRANCH  27  28
ATOM     28  C   UNL     1      23.433 -33.610  15.323  1.00  0.00     0.170 C 
BRANCH  28  29
ATOM     29  C   UNL     1      24.666 -33.113  14.591  1.00  0.00    -0.013 A 
ATOM     30  C   UNL     1      25.693 -34.036  14.312  1.00  0.00     0.056 A 
ATOM     31  C   UNL     1      24.856 -31.774  14.207  1.00  0.00     0.010 A 
ATOM     32  C   UNL     1      26.842 -33.633  13.641  1.00  0.00     0.157 A 
ATOM     33  C   UNL     1      26.024 -31.370  13.551  1.00  0.00     0.050 A 
ATOM     34  C   UNL     1      27.008 -32.305  13.272  1.00  0.00     0.157 A 
BRANCH  32  35
ATOM     35  O   UNL     1      27.824 -34.523  13.300  1.00  0.00    -0.504 OA
ATOM     36  H   UNL     1      27.895 -35.181  14.029  1.00  0.00     0.293 HD
ENDBRANCH  32  35
BRANCH  34  37
ATOM     37  O   UNL     1      28.141 -31.909  12.623  1.00  0.00    -0.504 OA
ATOM     38  H   UNL     1      28.759 -31.660  13.340  1.00  0.00     0.293 HD
ENDBRANCH  34  37
ENDBRANCH  28  29
BRANCH  28  39
ATOM     39  O   UNL     1      22.395 -32.629  15.241  1.00  0.00    -0.386 OA
ATOM     40  H   UNL     1      21.552 -33.127  15.164  1.00  0.00     0.211 HD
ENDBRANCH  28  39
ENDBRANCH  27  28
ENDBRANCH  26  27
ENDBRANCH   5  26
BRANCH   4  41
ATOM     41  O   UNL     1      23.785 -38.121  16.711  1.00  0.00    -0.385 OA
ATOM     42  H   UNL     1      22.873 -37.840  16.925  1.00  0.00     0.211 HD
ENDBRANCH   4  41
TORSDOF 16
ENDMDL
MODEL 3
REMARK VINA RESULT:    -8.280      3.493      7.737
REMARK INTER + INTRA:         -15.134
REMARK INTER:                 -14.472
REMARK INTRA:                  -0.663
REMARK UNBOUND:                -1.289
REMARK SMILES C[C@@H]1O[C@@H](OC[C@H]2O[C@@H](OCC(O)c3ccc(O)c(O)c3)[C@H](O)[C@@H](O)[C@@H]2O)[C@H](O)[C@H](O)[C@H]1O
REMARK SMILES IDX 7 1 26 2 24 3 22 4 9 5 8 6 6 7 5 8 4 9 2 10 32 11 3 12 30 13
REMARK SMILES IDX 28 14 1 15 33 16 31 18 29 20 27 22 25 24 10 26 11 27 12 28
REMARK SMILES IDX 14 29 21 30 15 31 19 32 16 33 17 34 20 35 18 37 13 39 23 41
REMARK H PARENT 33 17 31 19 29 21 27 23 25 25 20 36 18 38 13 40 23 42
ROOT
ATOM      1  C   UNL     1      24.883 -37.891  17.213  1.00  0.00     0.178 C 
ATOM      2  C   UNL     1      23.944 -38.564  18.224  1.00  0.00     0.177 C 
ATOM      3  C   UNL     1      23.851 -37.715  19.491  1.00  0.00     0.179 C 
ATOM      4  C   UNL     1      23.462 -36.284  19.142  1.00  0.00     0.202 C 
ATOM      5  C   UNL     1      24.439 -35.722  18.093  1.00  0.00     0.282 C 
ATOM      6  O   UNL     1      24.437 -36.547  16.927  1.00  0.00    -0.341 OA
ENDROOT
BRANCH   1   7
ATOM      7  C   UNL     1      24.926 -38.693  15.902  1.00  0.00     0.198 C 
BRANCH   7   8
ATOM      8  O   UNL     1      25.646 -39.911  16.123  1.00  0.00    -0.347 OA
BRANCH   8   9
ATOM      9  C   UNL     1      26.063 -40.543  14.911  1.00  0.00     0.281 C 
ATOM     10  C   UNL     1      23.820 -40.772  14.098  1.00  0.00     0.150 C 
ATOM     11  C   UNL     1      23.873 -42.307  14.181  1.00  0.00     0.174 C 
ATOM     12  O   UNL     1      25.122 -40.229  13.872  1.00  0.00    -0.344 OA
ATOM     13  C   UNL     1      24.861 -42.723  15.280  1.00  0.00     0.179 C 
ATOM     14  C   UNL     1      26.227 -42.069  15.068  1.00  0.00     0.202 C 
ATOM     15  C   UNL     1      22.929 -40.299  12.954  1.00  0.00     0.041 C 
BRANCH  11  16
ATOM     16  O   UNL     1      22.579 -42.874  14.465  1.00  0.00    -0.388 OA
ATOM     17  H   UNL     1      22.755 -43.691  14.971  1.00  0.00     0.211 HD
ENDBRANCH  11  16
BRANCH  13  18
ATOM     18  O   UNL     1      25.027 -44.152  15.266  1.00  0.00    -0.387 OA
ATOM     19  H   UNL     1      24.927 -44.420  14.331  1.00  0.00     0.211 HD
ENDBRANCH  13  18
BRANCH  14  20
ATOM     20  O   UNL     1      26.848 -42.651  13.908  1.00  0.00    -0.385 OA
ATOM     21  H   UNL     1      26.602 -42.055  13.171  1.00  0.00     0.211 HD
ENDBRANCH  14  20
ENDBRANCH   8   9
ENDBRANCH   7   8
ENDBRANCH   1   7
BRANCH   2  22
ATOM     22  O   UNL     1      24.406 -39.871  18.571  1.00  0.00    -0.387 OA
ATOM     23  H   UNL     1      24.004 -40.063  19.444  1.00  0.00     0.211 HD
ENDBRANCH   2  22
BRANCH   3  24
ATOM     24  O   UNL     1      22.882 -38.298  20.375  1.00  0.00    -0.387 OA
ATOM     25  H   UNL     1      23.086 -39.256  20.380  1.00  0.00     0.211 HD
ENDBRANCH   3  24
BRANCH   5  26
ATOM     26  O   UNL     1      23.963 -34.410  17.777  1.00  0.00    -0.347 OA
BRANCH  26  27
ATOM     27  C   UNL     1      22.994 -34.358  16.724  1.00  0.00     0.200 C 
BRANCH  27  28
ATOM     28  C   UNL     1      23.217 -33.270  15.651  1.00  0.00     0.170 C 
BRANCH  28  29
ATOM     29  C   UNL     1      24.526 -33.275  14.882  1.00  0.00    -0.013 A 
ATOM     30  C   UNL     1      24.941 -32.079  14.265  1.00  0.00     0.056 A 
ATOM     31  C   UNL     1      25.329 -34.417  14.722  1.00  0.00     0.010 A 
ATOM     32  C   UNL     1      26.133 -32.029  13.551  1.00  0.00     0.157 A 
ATOM     33  C   UNL     1      26.517 -34.366  13.985  1.00  0.00     0.050 A 
ATOM     34  C   UNL     1      26.910 -33.171  13.406  1.00  0.00     0.157 A 
BRANCH  32  35
ATOM     35  O   UNL     1      26.591 -30.864  12.998  1.00  0.00    -0.504 OA
ATOM     36  H   UNL     1      25.810 -30.370  12.655  1.00  0.00     0.293 HD
ENDBRANCH  32  35
BRANCH  34  37
ATOM     37  O   UNL     1      28.075 -33.122  12.696  1.00  0.00    -0.504 OA
ATOM     38  H   UNL     1      27.887 -32.506  11.960  1.00  0.00     0.293 HD
ENDBRANCH  34  37
ENDBRANCH  28  29
BRANCH  28  39
ATOM     39  O   UNL     1      22.998 -31.977  16.222  1.00  0.00    -0.386 OA
ATOM     40  H   UNL     1      23.796 -31.774  16.756  1.00  0.00     0.211 HD
ENDBRANCH  28  39
ENDBRANCH  27  28
ENDBRANCH  26  27
ENDBRANCH   5  26
BRANCH   4  41
ATOM     41  O   UNL     1      23.467 -35.497  20.344  1.00  0.00    -0.385 OA
ATOM     42  H   UNL     1      22.606 -35.033  20.350  1.00  0.00     0.211 HD
ENDBRANCH   4  41
TORSDOF 16
ENDMDL
MODEL 4
REMARK VINA RESULT:    -8.206      3.522      7.585
REMARK INTER + INTRA:         -15.011
REMARK INTER:                 -13.755
REMARK INTRA:                  -1.256
REMARK UNBOUND:                -1.289
REMARK SMILES C[C@@H]1O[C@@H](OC[C@H]2O[C@@H](OCC(O)c3ccc(O)c(O)c3)[C@H](O)[C@@H](O)[C@@H]2O)[C@H](O)[C@H](O)[C@H]1O
REMARK SMILES IDX 7 1 26 2 24 3 22 4 9 5 8 6 6 7 5 8 4 9 2 10 32 11 3 12 30 13
REMARK SMILES IDX 28 14 1 15 33 16 31 18 29 20 27 22 25 24 10 26 11 27 12 28
REMARK SMILES IDX 14 29 21 30 15 31 19 32 16 33 17 34 20 35 18 37 13 39 23 41
REMARK H PARENT 33 17 31 19 29 21 27 23 25 25 20 36 18 38 13 40 23 42
ROOT
ATOM      1  C   UNL     1      24.855 -37.844  17.372  1.00  0.00     0.178 C 
ATOM      2  C   UNL     1      23.902 -38.492  18.387  1.00  0.00     0.177 C 
ATOM      3  C   UNL     1      23.780 -37.604  19.624  1.00  0.00     0.179 C 
ATOM      4  C   UNL     1      23.386 -36.188  19.222  1.00  0.00     0.202 C 
ATOM      5  C   UNL     1      24.378 -35.651  18.174  1.00  0.00     0.282 C 
ATOM      6  O   UNL     1      24.404 -36.514  17.035  1.00  0.00    -0.341 OA
ENDROOT
BRANCH   1   7
ATOM      7  C   UNL     1      24.928 -38.687  16.088  1.00  0.00     0.198 C 
BRANCH   7   8
ATOM      8  O   UNL     1      26.012 -39.617  16.202  1.00  0.00    -0.347 OA
BRANCH   8   9
ATOM      9  C   UNL     1      25.645 -40.951  15.841  1.00  0.00     0.281 C 
ATOM     10  C   UNL     1      27.922 -41.655  15.587  1.00  0.00     0.150 C 
ATOM     11  C   UNL     1      27.760 -41.869  14.073  1.00  0.00     0.174 C 
ATOM     12  O   UNL     1      26.681 -41.851  16.266  1.00  0.00    -0.344 OA
ATOM     13  C   UNL     1      26.667 -40.931  13.541  1.00  0.00     0.179 C 
ATOM     14  C   UNL     1      25.368 -41.097  14.330  1.00  0.00     0.202 C 
ATOM     15  C   UNL     1      28.926 -42.631  16.192  1.00  0.00     0.041 C 
BRANCH  11  16
ATOM     16  O   UNL     1      28.989 -41.620  13.361  1.00  0.00    -0.388 OA
ATOM     17  H   UNL     1      29.113 -40.651  13.383  1.00  0.00     0.211 HD
ENDBRANCH  11  16
BRANCH  13  18
ATOM     18  O   UNL     1      26.407 -41.226  12.157  1.00  0.00    -0.387 OA
ATOM     19  H   UNL     1      25.443 -41.378  12.096  1.00  0.00     0.211 HD
ENDBRANCH  13  18
BRANCH  14  20
ATOM     20  O   UNL     1      24.797 -42.382  14.025  1.00  0.00    -0.385 OA
ATOM     21  H   UNL     1      25.462 -42.817  13.452  1.00  0.00     0.211 HD
ENDBRANCH  14  20
ENDBRANCH   8   9
ENDBRANCH   7   8
ENDBRANCH   1   7
BRANCH   2  22
ATOM     22  O   UNL     1      24.369 -39.783  18.784  1.00  0.00    -0.387 OA
ATOM     23  H   UNL     1      25.064 -39.612  19.452  1.00  0.00     0.211 HD
ENDBRANCH   2  22
BRANCH   3  24
ATOM     24  O   UNL     1      22.799 -38.167  20.508  1.00  0.00    -0.387 OA
ATOM     25  H   UNL     1      21.978 -38.220  19.978  1.00  0.00     0.211 HD
ENDBRANCH   3  24
BRANCH   5  26
ATOM     26  O   UNL     1      23.898 -34.354  17.807  1.00  0.00    -0.347 OA
BRANCH  26  27
ATOM     27  C   UNL     1      23.003 -34.336  16.688  1.00  0.00     0.200 C 
BRANCH  27  28
ATOM     28  C   UNL     1      23.247 -33.227  15.643  1.00  0.00     0.170 C 
BRANCH  28  29
ATOM     29  C   UNL     1      24.552 -33.242  14.868  1.00  0.00    -0.013 A 
ATOM     30  C   UNL     1      24.975 -32.049  14.249  1.00  0.00     0.056 A 
ATOM     31  C   UNL     1      25.346 -34.390  14.705  1.00  0.00     0.010 A 
ATOM     32  C   UNL     1      26.164 -32.008  13.531  1.00  0.00     0.157 A 
ATOM     33  C   UNL     1      26.532 -34.349  13.963  1.00  0.00     0.050 A 
ATOM     34  C   UNL     1      26.931 -33.156  13.382  1.00  0.00     0.157 A 
BRANCH  32  35
ATOM     35  O   UNL     1      26.628 -30.847  12.976  1.00  0.00    -0.504 OA
ATOM     36  H   UNL     1      26.346 -30.104  13.559  1.00  0.00     0.293 HD
ENDBRANCH  32  35
BRANCH  34  37
ATOM     37  O   UNL     1      28.093 -33.116  12.667  1.00  0.00    -0.504 OA
ATOM     38  H   UNL     1      28.728 -33.631  13.204  1.00  0.00     0.293 HD
ENDBRANCH  34  37
ENDBRANCH  28  29
BRANCH  28  39
ATOM     39  O   UNL     1      23.060 -31.944  16.248  1.00  0.00    -0.386 OA
ATOM     40  H   UNL     1      23.649 -31.324  15.766  1.00  0.00     0.211 HD
ENDBRANCH  28  39
ENDBRANCH  27  28
ENDBRANCH  26  27
ENDBRANCH   5  26
BRANCH   4  41
ATOM     41  O   UNL     1      23.363 -35.363  20.398  1.00  0.00    -0.385 OA
ATOM     42  H   UNL     1      23.880 -35.854  21.066  1.00  0.00     0.211 HD
ENDBRANCH   4  41
TORSDOF 16
ENDMDL
MODEL 5
REMARK VINA RESULT:    -8.079      1.678      2.766
REMARK INTER + INTRA:         -14.798
REMARK INTER:                 -13.267
REMARK INTRA:                  -1.531
REMARK UNBOUND:                -1.289
REMARK SMILES C[C@@H]1O[C@@H](OC[C@H]2O[C@@H](OCC(O)c3ccc(O)c(O)c3)[C@H](O)[C@@H](O)[C@@H]2O)[C@H](O)[C@H](O)[C@H]1O
REMARK SMILES IDX 7 1 26 2 24 3 22 4 9 5 8 6 6 7 5 8 4 9 2 10 32 11 3 12 30 13
REMARK SMILES IDX 28 14 1 15 33 16 31 18 29 20 27 22 25 24 10 26 11 27 12 28
REMARK SMILES IDX 14 29 21 30 15 31 19 32 16 33 17 34 20 35 18 37 13 39 23 41
REMARK H PARENT 33 17 31 19 29 21 27 23 25 25 20 36 18 38 13 40 23 42
ROOT
ATOM      1  C   UNL     1      26.671 -36.456  20.066  1.00  0.00     0.178 C 
ATOM      2  C   UNL     1      27.465 -37.383  19.134  1.00  0.00     0.177 C 
ATOM      3  C   UNL     1      26.754 -38.729  19.012  1.00  0.00     0.179 C 
ATOM      4  C   UNL     1      25.303 -38.526  18.594  1.00  0.00     0.202 C 
ATOM      5  C   UNL     1      24.614 -37.552  19.568  1.00  0.00     0.282 C 
ATOM      6  O   UNL     1      25.315 -36.306  19.593  1.00  0.00    -0.341 OA
ENDROOT
BRANCH   1   7
ATOM      7  C   UNL     1      27.331 -35.070  20.138  1.00  0.00     0.198 C 
BRANCH   7   8
ATOM      8  O   UNL     1      27.171 -34.545  21.461  1.00  0.00    -0.347 OA
BRANCH   8   9
ATOM      9  C   UNL     1      26.465 -33.302  21.488  1.00  0.00     0.281 C 
ATOM     10  C   UNL     1      27.145 -32.807  23.733  1.00  0.00     0.150 C 
ATOM     11  C   UNL     1      25.707 -32.918  24.266  1.00  0.00     0.174 C 
ATOM     12  O   UNL     1      27.151 -32.394  22.366  1.00  0.00    -0.344 OA
ATOM     13  C   UNL     1      24.908 -33.882  23.378  1.00  0.00     0.179 C 
ATOM     14  C   UNL     1      24.990 -33.471  21.908  1.00  0.00     0.202 C 
ATOM     15  C   UNL     1      27.961 -31.784  24.517  1.00  0.00     0.041 C 
BRANCH  11  16
ATOM     16  O   UNL     1      25.675 -33.389  25.629  1.00  0.00    -0.388 OA
ATOM     17  H   UNL     1      24.777 -33.752  25.760  1.00  0.00     0.211 HD
ENDBRANCH  11  16
BRANCH  13  18
ATOM     18  O   UNL     1      23.526 -33.879  23.781  1.00  0.00    -0.387 OA
ATOM     19  H   UNL     1      23.414 -33.079  24.333  1.00  0.00     0.211 HD
ENDBRANCH  13  18
BRANCH  14  20
ATOM     20  O   UNL     1      24.250 -32.251  21.722  1.00  0.00    -0.385 OA
ATOM     21  H   UNL     1      23.385 -32.540  21.362  1.00  0.00     0.211 HD
ENDBRANCH  14  20
ENDBRANCH   8   9
ENDBRANCH   7   8
ENDBRANCH   1   7
BRANCH   2  22
ATOM     22  O   UNL     1      28.791 -37.598  19.622  1.00  0.00    -0.387 OA
ATOM     23  H   UNL     1      28.691 -37.737  20.587  1.00  0.00     0.211 HD
ENDBRANCH   2  22
BRANCH   3  24
ATOM     24  O   UNL     1      27.446 -39.538  18.048  1.00  0.00    -0.387 OA
ATOM     25  H   UNL     1      28.180 -39.954  18.545  1.00  0.00     0.211 HD
ENDBRANCH   3  24
BRANCH   5  26
ATOM     26  O   UNL     1      23.287 -37.368  19.066  1.00  0.00    -0.347 OA
BRANCH  26  27
ATOM     27  C   UNL     1      23.213 -36.839  17.736  1.00  0.00     0.200 C 
BRANCH  27  28
ATOM     28  C   UNL     1      22.914 -35.328  17.624  1.00  0.00     0.170 C 
BRANCH  28  29
ATOM     29  C   UNL     1      23.638 -34.528  16.557  1.00  0.00    -0.013 A 
ATOM     30  C   UNL     1      24.934 -34.934  16.184  1.00  0.00     0.056 A 
ATOM     31  C   UNL     1      23.101 -33.383  15.945  1.00  0.00     0.010 A 
ATOM     32  C   UNL     1      25.640 -34.238  15.210  1.00  0.00     0.157 A 
ATOM     33  C   UNL     1      23.824 -32.673  14.980  1.00  0.00     0.050 A 
ATOM     34  C   UNL     1      25.089 -33.108  14.620  1.00  0.00     0.157 A 
BRANCH  32  35
ATOM     35  O   UNL     1      26.873 -34.650  14.784  1.00  0.00    -0.504 OA
ATOM     36  H   UNL     1      26.795 -34.887  13.831  1.00  0.00     0.293 HD
ENDBRANCH  32  35
BRANCH  34  37
ATOM     37  O   UNL     1      25.788 -32.419  13.671  1.00  0.00    -0.504 OA
ATOM     38  H   UNL     1      25.131 -31.812  13.277  1.00  0.00     0.293 HD
ENDBRANCH  34  37
ENDBRANCH  28  29
BRANCH  28  39
ATOM     39  O   UNL     1      23.092 -34.705  18.900  1.00  0.00    -0.386 OA
ATOM     40  H   UNL     1      23.429 -33.802  18.719  1.00  0.00     0.211 HD
ENDBRANCH  28  39
ENDBRANCH  27  28
ENDBRANCH  26  27
ENDBRANCH   5  26
BRANCH   4  41
ATOM     41  O   UNL     1      24.645 -39.803  18.571  1.00  0.00    -0.385 OA
ATOM     42  H   UNL     1      24.727 -40.118  17.649  1.00  0.00     0.211 HD
ENDBRANCH   4  41
TORSDOF 16
ENDMDL
MODEL 6
REMARK VINA RESULT:    -8.029      2.210      3.976
REMARK INTER + INTRA:         -14.715
REMARK INTER:                 -13.141
REMARK INTRA:                  -1.574
REMARK UNBOUND:                -1.289
REMARK SMILES C[C@@H]1O[C@@H](OC[C@H]2O[C@@H](OCC(O)c3ccc(O)c(O)c3)[C@H](O)[C@@H](O)[C@@H]2O)[C@H](O)[C@H](O)[C@H]1O
REMARK SMILES IDX 7 1 26 2 24 3 22 4 9 5 8 6 6 7 5 8 4 9 2 10 32 11 3 12 30 13
REMARK SMILES IDX 28 14 1 15 33 16 31 18 29 20 27 22 25 24 10 26 11 27 12 28
REMARK SMILES IDX 14 29 21 30 15 31 19 32 16 33 17 34 20 35 18 37 13 39 23 41
REMARK H PARENT 33 17 31 19 29 21 27 23 25 25 20 36 18 38 13 40 23 42
ROOT
ATOM      1  C   UNL     1      26.101 -36.221  20.788  1.00  0.00     0.178 C 
ATOM      2  C   UNL     1      27.067 -35.450  19.876  1.00  0.00     0.177 C 
ATOM      3  C   UNL     1      28.267 -36.330  19.531  1.00  0.00     0.179 C 
ATOM      4  C   UNL     1      27.801 -37.661  18.954  1.00  0.00     0.202 C 
ATOM      5  C   UNL     1      26.808 -38.327  19.926  1.00  0.00     0.282 C 
ATOM      6  O   UNL     1      25.698 -37.459  20.164  1.00  0.00    -0.341 OA
ENDROOT
BRANCH   1   7
ATOM      7  C   UNL     1      24.849 -35.378  21.081  1.00  0.00     0.198 C 
BRANCH   7   8
ATOM      8  O   UNL     1      25.014 -34.721  22.344  1.00  0.00    -0.347 OA
BRANCH   8   9
ATOM      9  C   UNL     1      24.366 -33.448  22.401  1.00  0.00     0.281 C 
ATOM     10  C   UNL     1      26.427 -32.258  22.691  1.00  0.00     0.150 C 
ATOM     11  C   UNL     1      26.050 -31.814  24.114  1.00  0.00     0.174 C 
ATOM     12  O   UNL     1      25.259 -32.445  21.890  1.00  0.00    -0.344 OA
ATOM     13  C   UNL     1      25.096 -32.845  24.733  1.00  0.00     0.179 C 
ATOM     14  C   UNL     1      23.890 -33.093  23.826  1.00  0.00     0.202 C 
ATOM     15  C   UNL     1      27.295 -31.221  21.986  1.00  0.00     0.041 C 
BRANCH  11  16
ATOM     16  O   UNL     1      27.212 -31.674  24.957  1.00  0.00    -0.388 OA
ATOM     17  H   UNL     1      27.960 -32.021  24.433  1.00  0.00     0.211 HD
ENDBRANCH  11  16
BRANCH  13  18
ATOM     18  O   UNL     1      24.624 -32.366  26.005  1.00  0.00    -0.387 OA
ATOM     19  H   UNL     1      25.147 -31.560  26.193  1.00  0.00     0.211 HD
ENDBRANCH  13  18
BRANCH  14  20
ATOM     20  O   UNL     1      23.059 -31.919  23.822  1.00  0.00    -0.385 OA
ATOM     21  H   UNL     1      23.683 -31.175  23.953  1.00  0.00     0.211 HD
ENDBRANCH  14  20
ENDBRANCH   8   9
ENDBRANCH   7   8
ENDBRANCH   1   7
BRANCH   2  22
ATOM     22  O   UNL     1      27.531 -34.253  20.504  1.00  0.00    -0.387 OA
ATOM     23  H   UNL     1      28.078 -34.554  21.259  1.00  0.00     0.211 HD
ENDBRANCH   2  22
BRANCH   3  24
ATOM     24  O   UNL     1      29.098 -35.637  18.587  1.00  0.00    -0.387 OA
ATOM     25  H   UNL     1      28.510 -35.435  17.830  1.00  0.00     0.211 HD
ENDBRANCH   3  24
BRANCH   5  26
ATOM     26  O   UNL     1      26.374 -39.528  19.280  1.00  0.00    -0.347 OA
BRANCH  26  27
ATOM     27  C   UNL     1      25.894 -39.353  17.942  1.00  0.00     0.200 C 
BRANCH  27  28
ATOM     28  C   UNL     1      24.400 -38.990  17.799  1.00  0.00     0.170 C 
BRANCH  28  29
ATOM     29  C   UNL     1      24.033 -37.538  17.553  1.00  0.00    -0.013 A 
ATOM     30  C   UNL     1      24.888 -36.761  16.747  1.00  0.00     0.056 A 
ATOM     31  C   UNL     1      22.904 -36.916  18.113  1.00  0.00     0.010 A 
ATOM     32  C   UNL     1      24.595 -35.427  16.488  1.00  0.00     0.157 A 
ATOM     33  C   UNL     1      22.626 -35.567  17.866  1.00  0.00     0.050 A 
ATOM     34  C   UNL     1      23.475 -34.833  17.054  1.00  0.00     0.157 A 
BRANCH  32  35
ATOM     35  O   UNL     1      25.374 -34.670  15.656  1.00  0.00    -0.504 OA
ATOM     36  H   UNL     1      25.430 -35.139  14.791  1.00  0.00     0.293 HD
ENDBRANCH  32  35
BRANCH  34  37
ATOM     37  O   UNL     1      23.195 -33.521  16.806  1.00  0.00    -0.504 OA
ATOM     38  H   UNL     1      22.690 -33.532  15.969  1.00  0.00     0.293 HD
ENDBRANCH  34  37
ENDBRANCH  28  29
BRANCH  28  39
ATOM     39  O   UNL     1      23.674 -39.488  18.927  1.00  0.00    -0.386 OA
ATOM     40  H   UNL     1      22.837 -39.858  18.572  1.00  0.00     0.211 HD
ENDBRANCH  28  39
ENDBRANCH  27  28
ENDBRANCH  26  27
ENDBRANCH   5  26
BRANCH   4  41
ATOM     41  O   UNL     1      28.949 -38.492  18.721  1.00  0.00    -0.385 OA
ATOM     42  H   UNL     1      29.231 -38.290  17.807  1.00  0.00     0.211 HD
ENDBRANCH   4  41
TORSDOF 16
ENDMDL
MODEL 7
REMARK VINA RESULT:    -8.009      4.845      7.827
REMARK INTER + INTRA:         -14.682
REMARK INTER:                 -13.329
REMARK INTRA:                  -1.354
REMARK UNBOUND:                -1.289
REMARK SMILES C[C@@H]1O[C@@H](OC[C@H]2O[C@@H](OCC(O)c3ccc(O)c(O)c3)[C@H](O)[C@@H](O)[C@@H]2O)[C@H](O)[C@H](O)[C@H]1O
REMARK SMILES IDX 7 1 26 2 24 3 22 4 9 5 8 6 6 7 5 8 4 9 2 10 32 11 3 12 30 13
REMARK SMILES IDX 28 14 1 15 33 16 31 18 29 20 27 22 25 24 10 26 11 27 12 28
REMARK SMILES IDX 14 29 21 30 15 31 19 32 16 33 17 34 20 35 18 37 13 39 23 41
REMARK H PARENT 33 17 31 19 29 21 27 23 25 25 20 36 18 38 13 40 23 42
ROOT
ATOM      1  C   UNL     1      27.444 -40.261  18.915  1.00  0.00     0.178 C 
ATOM      2  C   UNL     1      28.251 -40.963  20.016  1.00  0.00     0.177 C 
ATOM      3  C   UNL     1      28.584 -42.390  19.585  1.00  0.00     0.179 C 
ATOM      4  C   UNL     1      29.267 -42.387  18.223  1.00  0.00     0.202 C 
ATOM      5  C   UNL     1      28.396 -41.624  17.208  1.00  0.00     0.282 C 
ATOM      6  O   UNL     1      28.165 -40.289  17.664  1.00  0.00    -0.341 OA
ENDROOT
BRANCH   1   7
ATOM      7  C   UNL     1      27.169 -38.798  19.299  1.00  0.00     0.198 C 
BRANCH   7   8
ATOM      8  O   UNL     1      25.845 -38.699  19.840  1.00  0.00    -0.347 OA
BRANCH   8   9
ATOM      9  C   UNL     1      25.612 -37.466  20.526  1.00  0.00     0.281 C 
ATOM     10  C   UNL     1      23.241 -37.566  20.182  1.00  0.00     0.150 C 
ATOM     11  C   UNL     1      23.253 -36.330  19.267  1.00  0.00     0.174 C 
ATOM     12  O   UNL     1      24.309 -37.507  21.130  1.00  0.00    -0.344 OA
ATOM     13  C   UNL     1      24.620 -36.221  18.577  1.00  0.00     0.179 C 
ATOM     14  C   UNL     1      25.756 -36.240  19.600  1.00  0.00     0.202 C 
ATOM     15  C   UNL     1      21.942 -37.671  20.973  1.00  0.00     0.041 C 
BRANCH  11  16
ATOM     16  O   UNL     1      22.218 -36.395  18.265  1.00  0.00    -0.388 OA
ATOM     17  H   UNL     1      22.032 -35.468  18.020  1.00  0.00     0.211 HD
ENDBRANCH  11  16
BRANCH  13  18
ATOM     18  O   UNL     1      24.690 -34.991  17.833  1.00  0.00    -0.387 OA
ATOM     19  H   UNL     1      25.096 -34.339  18.440  1.00  0.00     0.211 HD
ENDBRANCH  13  18
BRANCH  14  20
ATOM     20  O   UNL     1      25.730 -35.013  20.350  1.00  0.00    -0.385 OA
ATOM     21  H   UNL     1      26.186 -34.363  19.775  1.00  0.00     0.211 HD
ENDBRANCH  14  20
ENDBRANCH   8   9
ENDBRANCH   7   8
ENDBRANCH   1   7
BRANCH   2  22
ATOM     22  O   UNL     1      27.525 -41.005  21.246  1.00  0.00    -0.387 OA
ATOM     23  H   UNL     1      27.070 -40.139  21.305  1.00  0.00     0.211 HD
ENDBRANCH   2  22
BRANCH   3  24
ATOM     24  O   UNL     1      29.435 -42.991  20.572  1.00  0.00    -0.387 OA
ATOM     25  H   UNL     1      28.831 -43.488  21.161  1.00  0.00     0.211 HD
ENDBRANCH   3  24
BRANCH   5  26
ATOM     26  O   UNL     1      29.139 -41.612  15.984  1.00  0.00    -0.347 OA
BRANCH  26  27
ATOM     27  C   UNL     1      28.445 -42.152  14.853  1.00  0.00     0.200 C 
BRANCH  27  28
ATOM     28  C   UNL     1      27.351 -41.254  14.237  1.00  0.00     0.170 C 
BRANCH  28  29
ATOM     29  C   UNL     1      25.936 -41.799  14.150  1.00  0.00    -0.013 A 
ATOM     30  C   UNL     1      24.947 -41.219  14.968  1.00  0.00     0.056 A 
ATOM     31  C   UNL     1      25.567 -42.873  13.324  1.00  0.00     0.010 A 
ATOM     32  C   UNL     1      23.636 -41.678  14.925  1.00  0.00     0.157 A 
ATOM     33  C   UNL     1      24.250 -43.346  13.300  1.00  0.00     0.050 A 
ATOM     34  C   UNL     1      23.294 -42.742  14.102  1.00  0.00     0.157 A 
BRANCH  32  35
ATOM     35  O   UNL     1      22.644 -41.089  15.661  1.00  0.00    -0.504 OA
ATOM     36  H   UNL     1      22.850 -41.239  16.613  1.00  0.00     0.293 HD
ENDBRANCH  32  35
BRANCH  34  37
ATOM     37  O   UNL     1      22.008 -43.199  14.069  1.00  0.00    -0.504 OA
ATOM     38  H   UNL     1      21.546 -42.678  14.755  1.00  0.00     0.293 HD
ENDBRANCH  34  37
ENDBRANCH  28  29
BRANCH  28  39
ATOM     39  O   UNL     1      27.772 -40.796  12.949  1.00  0.00    -0.386 OA
ATOM     40  H   UNL     1      27.224 -41.279  12.293  1.00  0.00     0.211 HD
ENDBRANCH  28  39
ENDBRANCH  27  28
ENDBRANCH  26  27
ENDBRANCH   5  26
BRANCH   4  41
ATOM     41  O   UNL     1      29.488 -43.746  17.812  1.00  0.00    -0.385 OA
ATOM     42  H   UNL     1      30.365 -43.984  18.174  1.00  0.00     0.211 HD
ENDBRANCH   4  41
TORSDOF 16
ENDMDL
MODEL 8
REMARK VINA RESULT:    -7.983      4.675      9.194
REMARK INTER + INTRA:         -14.638
REMARK INTER:                 -13.264
REMARK INTRA:                  -1.374
REMARK UNBOUND:                -1.289
REMARK SMILES C[C@@H]1O[C@@H](OC[C@H]2O[C@@H](OCC(O)c3ccc(O)c(O)c3)[C@H](O)[C@@H](O)[C@@H]2O)[C@H](O)[C@H](O)[C@H]1O
REMARK SMILES IDX 7 1 26 2 24 3 22 4 9 5 8 6 6 7 5 8 4 9 2 10 32 11 3 12 30 13
REMARK SMILES IDX 28 14 1 15 33 16 31 18 29 20 27 22 25 24 10 26 11 27 12 28
REMARK SMILES IDX 14 29 21 30 15 31 19 32 16 33 17 34 20 35 18 37 13 39 23 41
REMARK H PARENT 33 17 31 19 29 21 27 23 25 25 20 36 18 38 13 40 23 42
ROOT
ATOM      1  C   UNL     1      28.465 -41.635  16.919  1.00  0.00     0.178 C 
ATOM      2  C   UNL     1      28.539 -42.854  17.850  1.00  0.00     0.177 C 
ATOM      3  C   UNL     1      28.648 -42.392  19.302  1.00  0.00     0.179 C 
ATOM      4  C   UNL     1      27.519 -41.425  19.637  1.00  0.00     0.202 C 
ATOM      5  C   UNL     1      27.510 -40.268  18.621  1.00  0.00     0.282 C 
ATOM      6  O   UNL     1      27.364 -40.780  17.294  1.00  0.00    -0.341 OA
ENDROOT
BRANCH   1   7
ATOM      7  C   UNL     1      28.276 -42.083  15.461  1.00  0.00     0.198 C 
BRANCH   7   8
ATOM      8  O   UNL     1      27.052 -41.531  14.959  1.00  0.00    -0.347 OA
BRANCH   8   9
ATOM      9  C   UNL     1      26.216 -42.506  14.330  1.00  0.00     0.281 C 
ATOM     10  C   UNL     1      25.319 -40.926  12.766  1.00  0.00     0.150 C 
ATOM     11  C   UNL     1      23.909 -41.022  13.372  1.00  0.00     0.174 C 
ATOM     12  O   UNL     1      26.037 -42.147  12.950  1.00  0.00    -0.344 OA
ATOM     13  C   UNL     1      24.018 -41.399  14.856  1.00  0.00     0.179 C 
ATOM     14  C   UNL     1      24.857 -42.664  15.042  1.00  0.00     0.202 C 
ATOM     15  C   UNL     1      25.272 -40.652  11.266  1.00  0.00     0.041 C 
BRANCH  11  16
ATOM     16  O   UNL     1      23.185 -39.781  13.248  1.00  0.00    -0.388 OA
ATOM     17  H   UNL     1      23.866 -39.080  13.247  1.00  0.00     0.211 HD
ENDBRANCH  11  16
BRANCH  13  18
ATOM     18  O   UNL     1      22.704 -41.634  15.394  1.00  0.00    -0.387 OA
ATOM     19  H   UNL     1      22.769 -41.431  16.349  1.00  0.00     0.211 HD
ENDBRANCH  13  18
BRANCH  14  20
ATOM     20  O   UNL     1      24.124 -43.790  14.528  1.00  0.00    -0.385 OA
ATOM     21  H   UNL     1      23.931 -43.554  13.597  1.00  0.00     0.211 HD
ENDBRANCH  14  20
ENDBRANCH   8   9
ENDBRANCH   7   8
ENDBRANCH   1   7
BRANCH   2  22
ATOM     22  O   UNL     1      29.664 -43.679  17.537  1.00  0.00    -0.387 OA
ATOM     23  H   UNL     1      30.446 -43.175  17.844  1.00  0.00     0.211 HD
ENDBRANCH   2  22
BRANCH   3  24
ATOM     24  O   UNL     1      28.598 -43.540  20.163  1.00  0.00    -0.387 OA
ATOM     25  H   UNL     1      27.653 -43.641  20.398  1.00  0.00     0.211 HD
ENDBRANCH   3  24
BRANCH   5  26
ATOM     26  O   UNL     1      26.387 -39.451  18.967  1.00  0.00    -0.347 OA
BRANCH  26  27
ATOM     27  C   UNL     1      25.521 -39.122  17.874  1.00  0.00     0.200 C 
BRANCH  27  28
ATOM     28  C   UNL     1      24.170 -38.475  18.251  1.00  0.00     0.170 C 
BRANCH  28  29
ATOM     29  C   UNL     1      23.879 -37.073  17.748  1.00  0.00    -0.013 A 
ATOM     30  C   UNL     1      24.780 -36.491  16.835  1.00  0.00     0.056 A 
ATOM     31  C   UNL     1      22.776 -36.309  18.169  1.00  0.00     0.010 A 
ATOM     32  C   UNL     1      24.558 -35.211  16.340  1.00  0.00     0.157 A 
ATOM     33  C   UNL     1      22.569 -35.013  17.684  1.00  0.00     0.050 A 
ATOM     34  C   UNL     1      23.462 -34.474  16.772  1.00  0.00     0.157 A 
BRANCH  32  35
ATOM     35  O   UNL     1      25.383 -34.649  15.404  1.00  0.00    -0.504 OA
ATOM     36  H   UNL     1      25.214 -33.679  15.402  1.00  0.00     0.293 HD
ENDBRANCH  32  35
BRANCH  34  37
ATOM     37  O   UNL     1      23.252 -33.214  16.294  1.00  0.00    -0.504 OA
ATOM     38  H   UNL     1      23.603 -33.237  15.382  1.00  0.00     0.293 HD
ENDBRANCH  34  37
ENDBRANCH  28  29
BRANCH  28  39
ATOM     39  O   UNL     1      23.990 -38.526  19.669  1.00  0.00    -0.386 OA
ATOM     40  H   UNL     1      23.041 -38.727  19.818  1.00  0.00     0.211 HD
ENDBRANCH  28  39
ENDBRANCH  27  28
ENDBRANCH  26  27
ENDBRANCH   5  26
BRANCH   4  41
ATOM     41  O   UNL     1      27.701 -40.947  20.979  1.00  0.00    -0.385 OA
ATOM     42  H   UNL     1      28.462 -41.452  21.330  1.00  0.00     0.211 HD
ENDBRANCH   4  41
TORSDOF 16
ENDMDL
MODEL 9
REMARK VINA RESULT:    -7.930      4.712      7.956
REMARK INTER + INTRA:         -14.550
REMARK INTER:                 -13.082
REMARK INTRA:                  -1.468
REMARK UNBOUND:                -1.289
REMARK SMILES C[C@@H]1O[C@@H](OC[C@H]2O[C@@H](OCC(O)c3ccc(O)c(O)c3)[C@H](O)[C@@H](O)[C@@H]2O)[C@H](O)[C@H](O)[C@H]1O
REMARK SMILES IDX 7 1 26 2 24 3 22 4 9 5 8 6 6 7 5 8 4 9 2 10 32 11 3 12 30 13
REMARK SMILES IDX 28 14 1 15 33 16 31 18 29 20 27 22 25 24 10 26 11 27 12 28
REMARK SMILES IDX 14 29 21 30 15 31 19 32 16 33 17 34 20 35 18 37 13 39 23 41
REMARK H PARENT 33 17 31 19 29 21 27 23 25 25 20 36 18 38 13 40 23 42
ROOT
ATOM      1  C   UNL     1      26.236 -41.738  15.201  1.00  0.00     0.178 C 
ATOM      2  C   UNL     1      26.134 -41.517  13.685  1.00  0.00     0.177 C 
ATOM      3  C   UNL     1      24.670 -41.346  13.284  1.00  0.00     0.179 C 
ATOM      4  C   UNL     1      24.017 -40.248  14.114  1.00  0.00     0.202 C 
ATOM      5  C   UNL     1      24.215 -40.545  15.613  1.00  0.00     0.282 C 
ATOM      6  O   UNL     1      25.608 -40.650  15.913  1.00  0.00    -0.341 OA
ENDROOT
BRANCH   1   7
ATOM      7  C   UNL     1      27.709 -41.833  15.633  1.00  0.00     0.198 C 
BRANCH   7   8
ATOM      8  O   UNL     1      27.767 -42.038  17.050  1.00  0.00    -0.347 OA
BRANCH   8   9
ATOM      9  C   UNL     1      28.764 -41.238  17.690  1.00  0.00     0.281 C 
ATOM     10  C   UNL     1      29.562 -43.061  19.027  1.00  0.00     0.150 C 
ATOM     11  C   UNL     1      29.088 -42.401  20.333  1.00  0.00     0.174 C 
ATOM     12  O   UNL     1      29.878 -42.075  18.043  1.00  0.00    -0.344 OA
ATOM     13  C   UNL     1      27.889 -41.490  20.036  1.00  0.00     0.179 C 
ATOM     14  C   UNL     1      28.217 -40.492  18.925  1.00  0.00     0.202 C 
ATOM     15  C   UNL     1      30.817 -43.902  19.242  1.00  0.00     0.041 C 
BRANCH  11  16
ATOM     16  O   UNL     1      28.710 -43.380  21.322  1.00  0.00    -0.388 OA
ATOM     17  H   UNL     1      28.056 -43.958  20.883  1.00  0.00     0.211 HD
ENDBRANCH  11  16
BRANCH  13  18
ATOM     18  O   UNL     1      27.532 -40.758  21.223  1.00  0.00    -0.387 OA
ATOM     19  H   UNL     1      28.379 -40.508  21.643  1.00  0.00     0.211 HD
ENDBRANCH  13  18
BRANCH  14  20
ATOM     20  O   UNL     1      29.170 -39.536  19.423  1.00  0.00    -0.385 OA
ATOM     21  H   UNL     1      29.942 -40.075  19.694  1.00  0.00     0.211 HD
ENDBRANCH  14  20
ENDBRANCH   8   9
ENDBRANCH   7   8
ENDBRANCH   1   7
BRANCH   2  22
ATOM     22  O   UNL     1      26.690 -42.617  12.962  1.00  0.00    -0.387 OA
ATOM     23  H   UNL     1      26.691 -43.366  13.593  1.00  0.00     0.211 HD
ENDBRANCH   2  22
BRANCH   3  24
ATOM     24  O   UNL     1      24.602 -41.026  11.886  1.00  0.00    -0.387 OA
ATOM     25  H   UNL     1      23.790 -40.488  11.787  1.00  0.00     0.211 HD
ENDBRANCH   3  24
BRANCH   5  26
ATOM     26  O   UNL     1      23.635 -39.439  16.311  1.00  0.00    -0.347 OA
BRANCH  26  27
ATOM     27  C   UNL     1      24.072 -39.286  17.667  1.00  0.00     0.200 C 
BRANCH  27  28
ATOM     28  C   UNL     1      24.890 -38.013  17.976  1.00  0.00     0.170 C 
BRANCH  28  29
ATOM     29  C   UNL     1      24.370 -36.682  17.465  1.00  0.00    -0.013 A 
ATOM     30  C   UNL     1      25.130 -35.995  16.498  1.00  0.00     0.056 A 
ATOM     31  C   UNL     1      23.188 -36.079  17.930  1.00  0.00     0.010 A 
ATOM     32  C   UNL     1      24.697 -34.774  15.995  1.00  0.00     0.157 A 
ATOM     33  C   UNL     1      22.768 -34.839  17.436  1.00  0.00     0.050 A 
ATOM     34  C   UNL     1      23.527 -34.197  16.470  1.00  0.00     0.157 A 
BRANCH  32  35
ATOM     35  O   UNL     1      25.384 -34.119  15.009  1.00  0.00    -0.504 OA
ATOM     36  H   UNL     1      25.815 -34.801  14.443  1.00  0.00     0.293 HD
ENDBRANCH  32  35
BRANCH  34  37
ATOM     37  O   UNL     1      23.109 -32.992  15.983  1.00  0.00    -0.504 OA
ATOM     38  H   UNL     1      23.131 -32.395  16.758  1.00  0.00     0.293 HD
ENDBRANCH  34  37
ENDBRANCH  28  29
BRANCH  28  39
ATOM     39  O   UNL     1      26.244 -38.197  17.553  1.00  0.00    -0.386 OA
ATOM     40  H   UNL     1      26.239 -38.122  16.575  1.00  0.00     0.211 HD
ENDBRANCH  28  39
ENDBRANCH  27  28
ENDBRANCH  26  27
ENDBRANCH   5  26
BRANCH   4  41
ATOM     41  O   UNL     1      22.624 -40.173  13.770  1.00  0.00    -0.385 OA
ATOM     42  H   UNL     1      22.564 -40.534  12.863  1.00  0.00     0.211 HD
ENDBRANCH   4  41
TORSDOF 16
ENDMDL
