MODEL 1
REMARK VINA RESULT:    -8.861      0.000      0.000
REMARK INTER + INTRA:         -16.084
REMARK INTER:                 -14.818
REMARK INTRA:                  -1.266
REMARK UNBOUND:                -1.266
REMARK SMILES C[C@@H]1O[C@@H](OC[C@H]2O[C@@H](OCC(O)c3ccc(O)c(O)c3)[C@H](O)[C@@H](O)[C@@H]2O)[C@H](O)[C@H](O)[C@H]1O
REMARK SMILES IDX 7 1 26 2 24 3 22 4 9 5 8 6 6 7 5 8 4 9 2 10 32 11 3 12 30 13
REMARK SMILES IDX 28 14 1 15 33 16 31 18 29 20 27 22 25 24 10 26 11 27 12 28
REMARK SMILES IDX 14 29 21 30 15 31 19 32 16 33 17 34 20 35 18 37 13 39 23 41
REMARK H PARENT 33 17 31 19 29 21 27 23 25 25 20 36 18 38 13 40 23 42
ROOT
ATOM      1  C   UNL     1      23.528 -36.498  20.668  1.00  0.00     0.178 C 
ATOM      2  C   UNL     1      24.903 -37.073  20.296  1.00  0.00     0.177 C 
ATOM      3  C   UNL     1      24.838 -37.715  18.911  1.00  0.00     0.179 C 
ATOM      4  C   UNL     1      24.284 -36.726  17.893  1.00  0.00     0.202 C 
ATOM      5  C   UNL     1      22.929 -36.182  18.384  1.00  0.00     0.282 C 
ATOM      6  O   UNL     1      23.082 -35.563  19.662  1.00  0.00    -0.341 OA
ENDROOT
BRANCH   1   7
ATOM      7  C   UNL     1      23.595 -35.779  22.025  1.00  0.00     0.198 C 
BRANCH   7   8
ATOM      8  O   UNL     1      24.616 -34.774  21.970  1.00  0.00    -0.347 OA
BRANCH   8   9
ATOM      9  C   UNL     1      24.148 -33.479  22.355  1.00  0.00     0.281 C 
ATOM     10  C   UNL     1      26.327 -32.493  22.194  1.00  0.00     0.150 C 
ATOM     11  C   UNL     1      26.395 -32.230  23.707  1.00  0.00     0.174 C 
ATOM     12  O   UNL     1      24.974 -32.480  21.735  1.00  0.00    -0.344 OA
ATOM     13  C   UNL     1      25.536 -33.268  24.443  1.00  0.00     0.179 C 
ATOM     14  C   UNL     1      24.112 -33.297  23.887  1.00  0.00     0.202 C 
ATOM     15  C   UNL     1      27.082 -31.431  21.401  1.00  0.00     0.041 C 
BRANCH  11  16
ATOM     16  O   UNL     1      27.748 -32.295  24.203  1.00  0.00    -0.388 OA
ATOM     17  H   UNL     1      28.029 -31.366  24.321  1.00  0.00     0.211 HD
ENDBRANCH  11  16
BRANCH  13  18
ATOM     18  O   UNL     1      25.477 -32.941  25.844  1.00  0.00    -0.387 OA
ATOM     19  H   UNL     1      24.796 -32.243  25.923  1.00  0.00     0.211 HD
ENDBRANCH  13  18
BRANCH  14  20
ATOM     20  O   UNL     1      23.442 -32.078  24.253  1.00  0.00    -0.385 OA
ATOM     21  H   UNL     1      23.593 -31.476  23.495  1.00  0.00     0.211 HD
ENDBRANCH  14  20
ENDBRANCH   8   9
ENDBRANCH   7   8
ENDBRANCH   1   7
BRANCH   2  22
ATOM     22  O   UNL     1      25.331 -38.051  21.245  1.00  0.00    -0.387 OA
ATOM     23  H   UNL     1      26.065 -38.530  20.808  1.00  0.00     0.211 HD
ENDBRANCH   2  22
BRANCH   3  24
ATOM     24  O   UNL     1      26.156 -38.141  18.531  1.00  0.00    -0.387 OA
ATOM     25  H   UNL     1      26.175 -39.103  18.715  1.00  0.00     0.211 HD
ENDBRANCH   3  24
BRANCH   5  26
ATOM     26  O   UNL     1      22.517 -35.219  17.408  1.00  0.00    -0.347 OA
BRANCH  26  27
ATOM     27  C   UNL     1      23.382 -34.084  17.279  1.00  0.00     0.200 C 
BRANCH  27  28
ATOM     28  C   UNL     1      23.387 -33.391  15.899  1.00  0.00     0.170 C 
BRANCH  28  29
ATOM     29  C   UNL     1      24.660 -33.436  15.075  1.00  0.00    -0.013 A 
ATOM     30  C   UNL     1      25.022 -32.289  14.342  1.00  0.00     0.056 A 
ATOM     31  C   UNL     1      25.482 -34.572  14.975  1.00  0.00     0.010 A 
ATOM     32  C   UNL     1      26.180 -32.277  13.573  1.00  0.00     0.157 A 
ATOM     33  C   UNL     1      26.636 -34.562  14.183  1.00  0.00     0.050 A 
ATOM     34  C   UNL     1      26.976 -33.412  13.489  1.00  0.00     0.157 A 
BRANCH  32  35
ATOM     35  O   UNL     1      26.587 -31.154  12.905  1.00  0.00    -0.504 OA
ATOM     36  H   UNL     1      27.463 -31.350  12.500  1.00  0.00     0.293 HD
ENDBRANCH  32  35
BRANCH  34  37
ATOM     37  O   UNL     1      28.107 -33.402  12.726  1.00  0.00    -0.504 OA
ATOM     38  H   UNL     1      28.101 -34.267  12.269  1.00  0.00     0.293 HD
ENDBRANCH  34  37
ENDBRANCH  28  29
BRANCH  28  39
ATOM     39  O   UNL     1      22.950 -32.036  16.039  1.00  0.00    -0.386 OA
ATOM     40  H   UNL     1      23.262 -31.737  16.921  1.00  0.00     0.211 HD
ENDBRANCH  28  39
ENDBRANCH  27  28
ENDBRANCH  26  27
ENDBRANCH   5  26
BRANCH   4  41
ATOM     41  O   UNL     1      24.158 -37.389  16.624  1.00  0.00    -0.385 OA
ATOM     42  H   UNL     1      23.516 -36.853  16.118  1.00  0.00     0.211 HD
ENDBRANCH   4  41
TORSDOF 16
ENDMDL
MODEL 2
REMARK VINA RESULT:    -8.325      1.391      2.083
REMARK INTER + INTRA:         -15.188
REMARK INTER:                 -14.083
REMARK INTRA:                  -1.106
REMARK UNBOUND:                -1.266
REMARK SMILES C[C@@H]1O[C@@H](OC[C@H]2O[C@@H](OCC(O)c3ccc(O)c(O)c3)[C@H](O)[C@@H](O)[C@@H]2O)[C@H](O)[C@H](O)[C@H]1O
REMARK SMILES IDX 7 1 26 2 24 3 22 4 9 5 8 6 6 7 5 8 4 9 2 10 32 11 3 12 30 13
REMARK SMILES IDX 28 14 1 15 33 16 31 18 29 20 27 22 25 24 10 26 11 27 12 28
REMARK SMILES IDX 14 29 21 30 15 31 19 32 16 33 17 34 20 35 18 37 13 39 23 41
REMARK H PARENT 33 17 31 19 29 21 27 23 25 25 20 36 18 38 13 40 23 42
ROOT
ATOM      1  C   UNL     1      25.894 -36.375  19.656  1.00  0.00     0.178 C 
ATOM      2  C   UNL     1      26.625 -37.557  19.004  1.00  0.00     0.177 C 
ATOM      3  C   UNL     1      25.618 -38.463  18.297  1.00  0.00     0.179 C 
ATOM      4  C   UNL     1      24.765 -37.653  17.329  1.00  0.00     0.202 C 
ATOM      5  C   UNL     1      24.114 -36.473  18.074  1.00  0.00     0.282 C 
ATOM      6  O   UNL     1      25.122 -35.654  18.671  1.00  0.00    -0.341 OA
ENDROOT
BRANCH   1   7
ATOM      7  C   UNL     1      26.900 -35.411  20.305  1.00  0.00     0.198 C 
BRANCH   7   8
ATOM      8  O   UNL     1      26.379 -34.971  21.565  1.00  0.00    -0.347 OA
BRANCH   8   9
ATOM      9  C   UNL     1      25.973 -33.600  21.554  1.00  0.00     0.281 C 
ATOM     10  C   UNL     1      26.970 -33.146  23.687  1.00  0.00     0.150 C 
ATOM     11  C   UNL     1      25.604 -32.896  24.349  1.00  0.00     0.174 C 
ATOM     12  O   UNL     1      26.928 -32.824  22.296  1.00  0.00    -0.344 OA
ATOM     13  C   UNL     1      24.526 -33.701  23.610  1.00  0.00     0.179 C 
ATOM     14  C   UNL     1      24.547 -33.404  22.111  1.00  0.00     0.202 C 
ATOM     15  C   UNL     1      28.067 -32.294  24.315  1.00  0.00     0.041 C 
BRANCH  11  16
ATOM     16  O   UNL     1      25.607 -33.268  25.742  1.00  0.00    -0.388 OA
ATOM     17  H   UNL     1      24.677 -33.203  26.032  1.00  0.00     0.211 HD
ENDBRANCH  11  16
BRANCH  13  18
ATOM     18  O   UNL     1      23.227 -33.360  24.129  1.00  0.00    -0.387 OA
ATOM     19  H   UNL     1      23.210 -32.383  24.174  1.00  0.00     0.211 HD
ENDBRANCH  13  18
BRANCH  14  20
ATOM     20  O   UNL     1      24.081 -32.060  21.894  1.00  0.00    -0.385 OA
ATOM     21  H   UNL     1      24.852 -31.590  21.514  1.00  0.00     0.211 HD
ENDBRANCH  14  20
ENDBRANCH   8   9
ENDBRANCH   7   8
ENDBRANCH   1   7
BRANCH   2  22
ATOM     22  O   UNL     1      27.341 -38.324  19.975  1.00  0.00    -0.387 OA
ATOM     23  H   UNL     1      28.218 -37.894  20.046  1.00  0.00     0.211 HD
ENDBRANCH   2  22
BRANCH   3  24
ATOM     24  O   UNL     1      26.329 -39.496  17.597  1.00  0.00    -0.387 OA
ATOM     25  H   UNL     1      27.122 -39.054  17.229  1.00  0.00     0.211 HD
ENDBRANCH   3  24
BRANCH   5  26
ATOM     26  O   UNL     1      23.392 -35.734  17.084  1.00  0.00    -0.347 OA
BRANCH  26  27
ATOM     27  C   UNL     1      23.833 -34.383  16.899  1.00  0.00     0.200 C 
BRANCH  27  28
ATOM     28  C   UNL     1      23.557 -33.765  15.511  1.00  0.00     0.170 C 
BRANCH  28  29
ATOM     29  C   UNL     1      24.733 -33.230  14.714  1.00  0.00    -0.013 A 
ATOM     30  C   UNL     1      25.795 -34.109  14.422  1.00  0.00     0.056 A 
ATOM     31  C   UNL     1      24.838 -31.897  14.282  1.00  0.00     0.010 A 
ATOM     32  C   UNL     1      26.894 -33.671  13.692  1.00  0.00     0.157 A 
ATOM     33  C   UNL     1      25.957 -31.456  13.567  1.00  0.00     0.050 A 
ATOM     34  C   UNL     1      26.976 -32.348  13.277  1.00  0.00     0.157 A 
BRANCH  32  35
ATOM     35  O   UNL     1      27.907 -34.521  13.339  1.00  0.00    -0.504 OA
ATOM     36  H   UNL     1      27.496 -35.335  12.967  1.00  0.00     0.293 HD
ENDBRANCH  32  35
BRANCH  34  37
ATOM     37  O   UNL     1      28.062 -31.917  12.571  1.00  0.00    -0.504 OA
ATOM     38  H   UNL     1      27.999 -30.941  12.599  1.00  0.00     0.293 HD
ENDBRANCH  34  37
ENDBRANCH  28  29
BRANCH  28  39
ATOM     39  O   UNL     1      22.551 -32.754  15.625  1.00  0.00    -0.386 OA
ATOM     40  H   UNL     1      22.796 -32.210  16.405  1.00  0.00     0.211 HD
ENDBRANCH  28  39
ENDBRANCH  27  28
ENDBRANCH  26  27
ENDBRANCH   5  26
BRANCH   4  41
ATOM     41  O   UNL     1      23.777 -38.519  16.746  1.00  0.00    -0.385 OA
ATOM     42  H   UNL     1      23.548 -38.106  15.890  1.00  0.00     0.211 HD
ENDBRANCH   4  41
TORSDOF 16
ENDMDL
MODEL 3
REMARK VINA RESULT:    -8.317      3.463      7.703
REMARK INTER + INTRA:         -15.174
REMARK INTER:                 -14.437
REMARK INTRA:                  -0.737
REMARK UNBOUND:                -1.266
REMARK SMILES C[C@@H]1O[C@@H](OC[C@H]2O[C@@H](OCC(O)c3ccc(O)c(O)c3)[C@H](O)[C@@H](O)[C@@H]2O)[C@H](O)[C@H](O)[C@H]1O
REMARK SMILES IDX 7 1 26 2 24 3 22 4 9 5 8 6 6 7 5 8 4 9 2 10 32 11 3 12 30 13
REMARK SMILES IDX 28 14 1 15 33 16 31 18 29 20 27 22 25 24 10 26 11 27 12 28
REMARK SMILES IDX 14 29 21 30 15 31 19 32 16 33 17 34 20 35 18 37 13 39 23 41
REMARK H PARENT 33 17 31 19 29 21 27 23 25 25 20 36 18 38 13 40 23 42
ROOT
ATOM      1  C   UNL     1      24.888 -37.841  17.217  1.00  0.00     0.178 C 
ATOM      2  C   UNL     1      24.000 -38.538  18.258  1.00  0.00     0.177 C 
ATOM      3  C   UNL     1      23.917 -37.685  19.522  1.00  0.00     0.179 C 
ATOM      4  C   UNL     1      23.473 -36.268  19.178  1.00  0.00     0.202 C 
ATOM      5  C   UNL     1      24.402 -35.681  18.099  1.00  0.00     0.282 C 
ATOM      6  O   UNL     1      24.393 -36.513  16.938  1.00  0.00    -0.341 OA
ENDROOT
BRANCH   1   7
ATOM      7  C   UNL     1      24.919 -38.648  15.908  1.00  0.00     0.198 C 
BRANCH   7   8
ATOM      8  O   UNL     1      25.628 -39.873  16.132  1.00  0.00    -0.347 OA
BRANCH   8   9
ATOM      9  C   UNL     1      26.042 -40.509  14.921  1.00  0.00     0.281 C 
ATOM     10  C   UNL     1      23.795 -40.775  14.131  1.00  0.00     0.150 C 
ATOM     11  C   UNL     1      23.869 -42.308  14.227  1.00  0.00     0.174 C 
ATOM     12  O   UNL     1      25.087 -40.216  13.889  1.00  0.00    -0.344 OA
ATOM     13  C   UNL     1      24.873 -42.701  15.320  1.00  0.00     0.179 C 
ATOM     14  C   UNL     1      26.228 -42.032  15.089  1.00  0.00     0.202 C 
ATOM     15  C   UNL     1      22.887 -40.323  12.992  1.00  0.00     0.041 C 
BRANCH  11  16
ATOM     16  O   UNL     1      22.585 -42.890  14.528  1.00  0.00    -0.388 OA
ATOM     17  H   UNL     1      21.935 -42.172  14.399  1.00  0.00     0.211 HD
ENDBRANCH  11  16
BRANCH  13  18
ATOM     18  O   UNL     1      25.057 -44.129  15.316  1.00  0.00    -0.387 OA
ATOM     19  H   UNL     1      25.570 -44.330  16.124  1.00  0.00     0.211 HD
ENDBRANCH  13  18
BRANCH  14  20
ATOM     20  O   UNL     1      26.846 -42.615  13.928  1.00  0.00    -0.385 OA
ATOM     21  H   UNL     1      26.295 -42.311  13.177  1.00  0.00     0.211 HD
ENDBRANCH  14  20
ENDBRANCH   8   9
ENDBRANCH   7   8
ENDBRANCH   1   7
BRANCH   2  22
ATOM     22  O   UNL     1      24.513 -39.827  18.597  1.00  0.00    -0.387 OA
ATOM     23  H   UNL     1      23.737 -40.341  18.901  1.00  0.00     0.211 HD
ENDBRANCH   2  22
BRANCH   3  24
ATOM     24  O   UNL     1      22.992 -38.293  20.436  1.00  0.00    -0.387 OA
ATOM     25  H   UNL     1      22.174 -38.432  19.917  1.00  0.00     0.211 HD
ENDBRANCH   3  24
BRANCH   5  26
ATOM     26  O   UNL     1      23.877 -34.387  17.791  1.00  0.00    -0.347 OA
BRANCH  26  27
ATOM     27  C   UNL     1      22.988 -34.349  16.668  1.00  0.00     0.200 C 
BRANCH  27  28
ATOM     28  C   UNL     1      23.239 -33.222  15.642  1.00  0.00     0.170 C 
BRANCH  28  29
ATOM     29  C   UNL     1      24.540 -33.238  14.860  1.00  0.00    -0.013 A 
ATOM     30  C   UNL     1      24.957 -32.046  14.235  1.00  0.00     0.056 A 
ATOM     31  C   UNL     1      25.335 -34.385  14.696  1.00  0.00     0.010 A 
ATOM     32  C   UNL     1      26.142 -32.006  13.510  1.00  0.00     0.157 A 
ATOM     33  C   UNL     1      26.516 -34.344  13.947  1.00  0.00     0.050 A 
ATOM     34  C   UNL     1      26.910 -33.153  13.360  1.00  0.00     0.157 A 
BRANCH  32  35
ATOM     35  O   UNL     1      26.601 -30.845  12.949  1.00  0.00    -0.504 OA
ATOM     36  H   UNL     1      26.247 -30.798  12.031  1.00  0.00     0.293 HD
ENDBRANCH  32  35
BRANCH  34  37
ATOM     37  O   UNL     1      28.068 -33.114  12.639  1.00  0.00    -0.504 OA
ATOM     38  H   UNL     1      28.032 -32.259  12.165  1.00  0.00     0.293 HD
ENDBRANCH  34  37
ENDBRANCH  28  29
BRANCH  28  39
ATOM     39  O   UNL     1      23.071 -31.949  16.273  1.00  0.00    -0.386 OA
ATOM     40  H   UNL     1      22.351 -31.494  15.785  1.00  0.00     0.211 HD
ENDBRANCH  28  39
ENDBRANCH  27  28
ENDBRANCH  26  27
ENDBRANCH   5  26
BRANCH   4  41
ATOM     41  O   UNL     1      23.488 -35.475  20.376  1.00  0.00    -0.385 OA
ATOM     42  H   UNL     1      23.062 -36.032  21.058  1.00  0.00     0.211 HD
ENDBRANCH   4  41
TORSDOF 16
ENDMDL
MODEL 4
REMARK VINA RESULT:    -8.061      1.381      2.511
REMARK INTER + INTRA:         -14.747
REMARK INTER:                 -13.598
REMARK INTRA:                  -1.148
REMARK UNBOUND:                -1.266
REMARK SMILES C[C@@H]1O[C@@H](OC[C@H]2O[C@@H](OCC(O)c3ccc(O)c(O)c3)[C@H](O)[C@@H](O)[C@@H]2O)[C@H](O)[C@H](O)[C@H]1O
REMARK SMILES IDX 7 1 26 2 24 3 22 4 9 5 8 6 6 7 5 8 4 9 2 10 32 11 3 12 30 13
REMARK SMILES IDX 28 14 1 15 33 16 31 18 29 20 27 22 25 24 10 26 11 27 12 28
REMARK SMILES IDX 14 29 21 30 15 31 19 32 16 33 17 34 20 35 18 37 13 39 23 41
REMARK H PARENT 33 17 31 19 29 21 27 23 25 25 20 36 18 38 13 40 23 42
ROOT
ATOM      1  C   UNL     1      26.051 -35.624  19.824  1.00  0.00     0.178 C 
ATOM      2  C   UNL     1      26.720 -36.686  18.940  1.00  0.00     0.177 C 
ATOM      3  C   UNL     1      25.658 -37.608  18.344  1.00  0.00     0.179 C 
ATOM      4  C   UNL     1      24.588 -36.793  17.629  1.00  0.00     0.202 C 
ATOM      5  C   UNL     1      24.015 -35.734  18.590  1.00  0.00     0.282 C 
ATOM      6  O   UNL     1      25.063 -34.889  19.070  1.00  0.00    -0.341 OA
ENDROOT
BRANCH   1   7
ATOM      7  C   UNL     1      27.099 -34.639  20.369  1.00  0.00     0.198 C 
BRANCH   7   8
ATOM      8  O   UNL     1      26.458 -33.728  21.270  1.00  0.00    -0.347 OA
BRANCH   8   9
ATOM      9  C   UNL     1      26.699 -34.039  22.645  1.00  0.00     0.281 C 
ATOM     10  C   UNL     1      24.371 -33.965  23.211  1.00  0.00     0.150 C 
ATOM     11  C   UNL     1      24.557 -32.729  24.106  1.00  0.00     0.174 C 
ATOM     12  O   UNL     1      25.565 -34.748  23.169  1.00  0.00    -0.344 OA
ATOM     13  C   UNL     1      25.755 -31.912  23.602  1.00  0.00     0.179 C 
ATOM     14  C   UNL     1      27.006 -32.783  23.487  1.00  0.00     0.202 C 
ATOM     15  C   UNL     1      23.256 -34.871  23.723  1.00  0.00     0.041 C 
BRANCH  11  16
ATOM     16  O   UNL     1      23.382 -31.893  24.118  1.00  0.00    -0.388 OA
ATOM     17  H   UNL     1      23.710 -30.977  24.033  1.00  0.00     0.211 HD
ENDBRANCH  11  16
BRANCH  13  18
ATOM     18  O   UNL     1      26.025 -30.835  24.518  1.00  0.00    -0.387 OA
ATOM     19  H   UNL     1      25.214 -30.289  24.530  1.00  0.00     0.211 HD
ENDBRANCH  13  18
BRANCH  14  20
ATOM     20  O   UNL     1      27.452 -33.136  24.808  1.00  0.00    -0.385 OA
ATOM     21  H   UNL     1      28.234 -33.708  24.660  1.00  0.00     0.211 HD
ENDBRANCH  14  20
ENDBRANCH   8   9
ENDBRANCH   7   8
ENDBRANCH   1   7
BRANCH   2  22
ATOM     22  O   UNL     1      27.653 -37.470  19.686  1.00  0.00    -0.387 OA
ATOM     23  H   UNL     1      28.071 -38.066  19.031  1.00  0.00     0.211 HD
ENDBRANCH   2  22
BRANCH   3  24
ATOM     24  O   UNL     1      26.288 -38.519  17.431  1.00  0.00    -0.387 OA
ATOM     25  H   UNL     1      26.328 -38.039  16.578  1.00  0.00     0.211 HD
ENDBRANCH   3  24
BRANCH   5  26
ATOM     26  O   UNL     1      23.074 -34.976  17.823  1.00  0.00    -0.347 OA
BRANCH  26  27
ATOM     27  C   UNL     1      23.616 -33.817  17.179  1.00  0.00     0.200 C 
BRANCH  27  28
ATOM     28  C   UNL     1      23.452 -33.755  15.645  1.00  0.00     0.170 C 
BRANCH  28  29
ATOM     29  C   UNL     1      24.598 -33.198  14.820  1.00  0.00    -0.013 A 
ATOM     30  C   UNL     1      25.642 -34.071  14.455  1.00  0.00     0.056 A 
ATOM     31  C   UNL     1      24.692 -31.852  14.429  1.00  0.00     0.010 A 
ATOM     32  C   UNL     1      26.714 -33.612  13.698  1.00  0.00     0.157 A 
ATOM     33  C   UNL     1      25.784 -31.391  13.684  1.00  0.00     0.050 A 
ATOM     34  C   UNL     1      26.786 -32.277  13.324  1.00  0.00     0.157 A 
BRANCH  32  35
ATOM     35  O   UNL     1      27.707 -34.454  13.276  1.00  0.00    -0.504 OA
ATOM     36  H   UNL     1      28.519 -34.238  13.791  1.00  0.00     0.293 HD
ENDBRANCH  32  35
BRANCH  34  37
ATOM     37  O   UNL     1      27.844 -31.826  12.589  1.00  0.00    -0.504 OA
ATOM     38  H   UNL     1      28.568 -31.726  13.240  1.00  0.00     0.293 HD
ENDBRANCH  34  37
ENDBRANCH  28  29
BRANCH  28  39
ATOM     39  O   UNL     1      22.241 -33.067  15.316  1.00  0.00    -0.386 OA
ATOM     40  H   UNL     1      21.509 -33.692  15.510  1.00  0.00     0.211 HD
ENDBRANCH  28  39
ENDBRANCH  27  28
ENDBRANCH  26  27
ENDBRANCH   5  26
BRANCH   4  41
ATOM     41  O   UNL     1      23.565 -37.684  17.156  1.00  0.00    -0.385 OA
ATOM     42  H   UNL     1      24.035 -38.505  16.908  1.00  0.00     0.211 HD
ENDBRANCH   4  41
TORSDOF 16
ENDMDL
MODEL 5
REMARK VINA RESULT:    -8.050      2.231      3.994
REMARK INTER + INTRA:         -14.728
REMARK INTER:                 -13.183
REMARK INTRA:                  -1.545
REMARK UNBOUND:                -1.266
REMARK SMILES C[C@@H]1O[C@@H](OC[C@H]2O[C@@H](OCC(O)c3ccc(O)c(O)c3)[C@H](O)[C@@H](O)[C@@H]2O)[C@H](O)[C@H](O)[C@H]1O
REMARK SMILES IDX 7 1 26 2 24 3 22 4 9 5 8 6 6 7 5 8 4 9 2 10 32 11 3 12 30 13
REMARK SMILES IDX 28 14 1 15 33 16 31 18 29 20 27 22 25 24 10 26 11 27 12 28
REMARK SMILES IDX 14 29 21 30 15 31 19 32 16 33 17 34 20 35 18 37 13 39 23 41
REMARK H PARENT 33 17 31 19 29 21 27 23 25 25 20 36 18 38 13 40 23 42
ROOT
ATOM      1  C   UNL     1      26.116 -36.209  20.748  1.00  0.00     0.178 C 
ATOM      2  C   UNL     1      27.056 -35.436  19.811  1.00  0.00     0.177 C 
ATOM      3  C   UNL     1      28.250 -36.312  19.438  1.00  0.00     0.179 C 
ATOM      4  C   UNL     1      27.775 -37.646  18.875  1.00  0.00     0.202 C 
ATOM      5  C   UNL     1      26.808 -38.314  19.872  1.00  0.00     0.282 C 
ATOM      6  O   UNL     1      25.701 -37.450  20.136  1.00  0.00    -0.341 OA
ENDROOT
BRANCH   1   7
ATOM      7  C   UNL     1      24.868 -35.370  21.070  1.00  0.00     0.198 C 
BRANCH   7   8
ATOM      8  O   UNL     1      25.045 -34.742  22.346  1.00  0.00    -0.347 OA
BRANCH   8   9
ATOM      9  C   UNL     1      24.401 -33.468  22.437  1.00  0.00     0.281 C 
ATOM     10  C   UNL     1      26.472 -32.284  22.675  1.00  0.00     0.150 C 
ATOM     11  C   UNL     1      26.140 -31.855  24.115  1.00  0.00     0.174 C 
ATOM     12  O   UNL     1      25.280 -32.461  21.909  1.00  0.00    -0.344 OA
ATOM     13  C   UNL     1      25.204 -32.892  24.751  1.00  0.00     0.179 C 
ATOM     14  C   UNL     1      23.971 -33.128  23.879  1.00  0.00     0.202 C 
ATOM     15  C   UNL     1      27.320 -31.241  21.956  1.00  0.00     0.041 C 
BRANCH  11  16
ATOM     16  O   UNL     1      27.327 -31.726  24.923  1.00  0.00    -0.388 OA
ATOM     17  H   UNL     1      27.182 -30.936  25.478  1.00  0.00     0.211 HD
ENDBRANCH  11  16
BRANCH  13  18
ATOM     18  O   UNL     1      24.773 -32.425  26.043  1.00  0.00    -0.387 OA
ATOM     19  H   UNL     1      24.239 -31.624  25.869  1.00  0.00     0.211 HD
ENDBRANCH  13  18
BRANCH  14  20
ATOM     20  O   UNL     1      23.141 -31.953  23.914  1.00  0.00    -0.385 OA
ATOM     21  H   UNL     1      22.243 -32.279  23.698  1.00  0.00     0.211 HD
ENDBRANCH  14  20
ENDBRANCH   8   9
ENDBRANCH   7   8
ENDBRANCH   1   7
BRANCH   2  22
ATOM     22  O   UNL     1      27.531 -34.237  20.426  1.00  0.00    -0.387 OA
ATOM     23  H   UNL     1      27.048 -34.175  21.277  1.00  0.00     0.211 HD
ENDBRANCH   2  22
BRANCH   3  24
ATOM     24  O   UNL     1      29.056 -35.618  18.473  1.00  0.00    -0.387 OA
ATOM     25  H   UNL     1      28.609 -34.757  18.340  1.00  0.00     0.211 HD
ENDBRANCH   3  24
BRANCH   5  26
ATOM     26  O   UNL     1      26.363 -39.517  19.239  1.00  0.00    -0.347 OA
BRANCH  26  27
ATOM     27  C   UNL     1      25.854 -39.347  17.910  1.00  0.00     0.200 C 
BRANCH  27  28
ATOM     28  C   UNL     1      24.359 -38.974  17.800  1.00  0.00     0.170 C 
BRANCH  28  29
ATOM     29  C   UNL     1      23.996 -37.522  17.549  1.00  0.00    -0.013 A 
ATOM     30  C   UNL     1      24.836 -36.759  16.714  1.00  0.00     0.056 A 
ATOM     31  C   UNL     1      22.887 -36.886  18.133  1.00  0.00     0.010 A 
ATOM     32  C   UNL     1      24.547 -35.425  16.449  1.00  0.00     0.157 A 
ATOM     33  C   UNL     1      22.613 -35.537  17.880  1.00  0.00     0.050 A 
ATOM     34  C   UNL     1      23.446 -34.818  17.038  1.00  0.00     0.157 A 
BRANCH  32  35
ATOM     35  O   UNL     1      25.310 -34.682  15.590  1.00  0.00    -0.504 OA
ATOM     36  H   UNL     1      26.012 -34.240  16.121  1.00  0.00     0.293 HD
ENDBRANCH  32  35
BRANCH  34  37
ATOM     37  O   UNL     1      23.170 -33.505  16.786  1.00  0.00    -0.504 OA
ATOM     38  H   UNL     1      22.203 -33.483  16.641  1.00  0.00     0.293 HD
ENDBRANCH  34  37
ENDBRANCH  28  29
BRANCH  28  39
ATOM     39  O   UNL     1      23.656 -39.457  18.948  1.00  0.00    -0.386 OA
ATOM     40  H   UNL     1      23.544 -40.423  18.816  1.00  0.00     0.211 HD
ENDBRANCH  28  39
ENDBRANCH  27  28
ENDBRANCH  26  27
ENDBRANCH   5  26
BRANCH   4  41
ATOM     41  O   UNL     1      28.920 -38.474  18.615  1.00  0.00    -0.385 OA
ATOM     42  H   UNL     1      28.605 -39.159  17.993  1.00  0.00     0.211 HD
ENDBRANCH   4  41
TORSDOF 16
ENDMDL
MODEL 6
REMARK VINA RESULT:    -8.040      3.364      7.603
REMARK INTER + INTRA:         -14.710
REMARK INTER:                 -13.575
REMARK INTRA:                  -1.135
REMARK UNBOUND:                -1.266
REMARK SMILES C[C@@H]1O[C@@H](OC[C@H]2O[C@@H](OCC(O)c3ccc(O)c(O)c3)[C@H](O)[C@@H](O)[C@@H]2O)[C@H](O)[C@H](O)[C@H]1O
REMARK SMILES IDX 7 1 26 2 24 3 22 4 9 5 8 6 6 7 5 8 4 9 2 10 32 11 3 12 30 13
REMARK SMILES IDX 28 14 1 15 33 16 31 18 29 20 27 22 25 24 10 26 11 27 12 28
REMARK SMILES IDX 14 29 21 30 15 31 19 32 16 33 17 34 20 35 18 37 13 39 23 41
REMARK H PARENT 33 17 31 19 29 21 27 23 25 25 20 36 18 38 13 40 23 42
ROOT
ATOM      1  C   UNL     1      24.927 -37.661  17.318  1.00  0.00     0.178 C 
ATOM      2  C   UNL     1      24.564 -38.254  18.687  1.00  0.00     0.177 C 
ATOM      3  C   UNL     1      24.847 -37.232  19.787  1.00  0.00     0.179 C 
ATOM      4  C   UNL     1      24.147 -35.914  19.478  1.00  0.00     0.202 C 
ATOM      5  C   UNL     1      24.547 -35.432  18.071  1.00  0.00     0.282 C 
ATOM      6  O   UNL     1      24.213 -36.424  17.099  1.00  0.00    -0.341 OA
ENDROOT
BRANCH   1   7
ATOM      7  C   UNL     1      24.574 -38.647  16.193  1.00  0.00     0.198 C 
BRANCH   7   8
ATOM      8  O   UNL     1      25.516 -39.727  16.208  1.00  0.00    -0.347 OA
BRANCH   8   9
ATOM      9  C   UNL     1      24.912 -41.000  15.961  1.00  0.00     0.281 C 
ATOM     10  C   UNL     1      26.546 -41.609  14.316  1.00  0.00     0.150 C 
ATOM     11  C   UNL     1      25.509 -41.596  13.181  1.00  0.00     0.174 C 
ATOM     12  O   UNL     1      25.931 -41.932  15.565  1.00  0.00    -0.344 OA
ATOM     13  C   UNL     1      24.384 -40.613  13.531  1.00  0.00     0.179 C 
ATOM     14  C   UNL     1      23.789 -40.923  14.905  1.00  0.00     0.202 C 
ATOM     15  C   UNL     1      27.640 -42.644  14.072  1.00  0.00     0.041 C 
BRANCH  11  16
ATOM     16  O   UNL     1      26.098 -41.217  11.921  1.00  0.00    -0.388 OA
ATOM     17  H   UNL     1      26.401 -42.051  11.511  1.00  0.00     0.211 HD
ENDBRANCH  11  16
BRANCH  13  18
ATOM     18  O   UNL     1      23.339 -40.703  12.546  1.00  0.00    -0.387 OA
ATOM     19  H   UNL     1      22.504 -40.549  13.032  1.00  0.00     0.211 HD
ENDBRANCH  13  18
BRANCH  14  20
ATOM     20  O   UNL     1      23.058 -42.159  14.829  1.00  0.00    -0.385 OA
ATOM     21  H   UNL     1      22.362 -42.077  15.514  1.00  0.00     0.211 HD
ENDBRANCH  14  20
ENDBRANCH   8   9
ENDBRANCH   7   8
ENDBRANCH   1   7
BRANCH   2  22
ATOM     22  O   UNL     1      25.311 -39.443  18.952  1.00  0.00    -0.387 OA
ATOM     23  H   UNL     1      26.184 -39.297  18.531  1.00  0.00     0.211 HD
ENDBRANCH   2  22
BRANCH   3  24
ATOM     24  O   UNL     1      24.394 -37.758  21.043  1.00  0.00    -0.387 OA
ATOM     25  H   UNL     1      23.975 -38.616  20.824  1.00  0.00     0.211 HD
ENDBRANCH   3  24
BRANCH   5  26
ATOM     26  O   UNL     1      23.799 -34.234  17.839  1.00  0.00    -0.347 OA
BRANCH  26  27
ATOM     27  C   UNL     1      22.969 -34.258  16.672  1.00  0.00     0.200 C 
BRANCH  27  28
ATOM     28  C   UNL     1      23.245 -33.161  15.621  1.00  0.00     0.170 C 
BRANCH  28  29
ATOM     29  C   UNL     1      24.554 -33.212  14.854  1.00  0.00    -0.013 A 
ATOM     30  C   UNL     1      25.018 -32.028  14.247  1.00  0.00     0.056 A 
ATOM     31  C   UNL     1      25.311 -34.384  14.685  1.00  0.00     0.010 A 
ATOM     32  C   UNL     1      26.212 -32.020  13.536  1.00  0.00     0.157 A 
ATOM     33  C   UNL     1      26.501 -34.375  13.950  1.00  0.00     0.050 A 
ATOM     34  C   UNL     1      26.943 -33.191  13.381  1.00  0.00     0.157 A 
BRANCH  32  35
ATOM     35  O   UNL     1      26.717 -30.869  12.993  1.00  0.00    -0.504 OA
ATOM     36  H   UNL     1      27.515 -30.620  13.514  1.00  0.00     0.293 HD
ENDBRANCH  32  35
BRANCH  34  37
ATOM     37  O   UNL     1      28.109 -33.183  12.673  1.00  0.00    -0.504 OA
ATOM     38  H   UNL     1      27.828 -33.244  11.739  1.00  0.00     0.293 HD
ENDBRANCH  34  37
ENDBRANCH  28  29
BRANCH  28  39
ATOM     39  O   UNL     1      23.086 -31.870  16.219  1.00  0.00    -0.386 OA
ATOM     40  H   UNL     1      23.932 -31.394  16.073  1.00  0.00     0.211 HD
ENDBRANCH  28  39
ENDBRANCH  27  28
ENDBRANCH  26  27
ENDBRANCH   5  26
BRANCH   4  41
ATOM     41  O   UNL     1      24.503 -34.953  20.486  1.00  0.00    -0.385 OA
ATOM     42  H   UNL     1      23.657 -34.551  20.766  1.00  0.00     0.211 HD
ENDBRANCH   4  41
TORSDOF 16
ENDMDL
MODEL 7
REMARK VINA RESULT:    -8.023      4.633      9.148
REMARK INTER + INTRA:         -14.683
REMARK INTER:                 -13.273
REMARK INTRA:                  -1.410
REMARK UNBOUND:                -1.266
REMARK SMILES C[C@@H]1O[C@@H](OC[C@H]2O[C@@H](OCC(O)c3ccc(O)c(O)c3)[C@H](O)[C@@H](O)[C@@H]2O)[C@H](O)[C@H](O)[C@H]1O
REMARK SMILES IDX 7 1 26 2 24 3 22 4 9 5 8 6 6 7 5 8 4 9 2 10 32 11 3 12 30 13
REMARK SMILES IDX 28 14 1 15 33 16 31 18 29 20 27 22 25 24 10 26 11 27 12 28
REMARK SMILES IDX 14 29 21 30 15 31 19 32 16 33 17 34 20 35 18 37 13 39 23 41
REMARK H PARENT 33 17 31 19 29 21 27 23 25 25 20 36 18 38 13 40 23 42
ROOT
ATOM      1  C   UNL     1      28.436 -41.622  16.899  1.00  0.00     0.178 C 
ATOM      2  C   UNL     1      28.505 -42.839  17.833  1.00  0.00     0.177 C 
ATOM      3  C   UNL     1      28.619 -42.373  19.283  1.00  0.00     0.179 C 
ATOM      4  C   UNL     1      27.496 -41.399  19.617  1.00  0.00     0.202 C 
ATOM      5  C   UNL     1      27.491 -40.244  18.598  1.00  0.00     0.282 C 
ATOM      6  O   UNL     1      27.340 -40.759  17.273  1.00  0.00    -0.341 OA
ENDROOT
BRANCH   1   7
ATOM      7  C   UNL     1      28.242 -42.072  15.442  1.00  0.00     0.198 C 
BRANCH   7   8
ATOM      8  O   UNL     1      27.035 -41.492  14.931  1.00  0.00    -0.347 OA
BRANCH   8   9
ATOM      9  C   UNL     1      26.154 -42.455  14.349  1.00  0.00     0.281 C 
ATOM     10  C   UNL     1      25.268 -40.890  12.765  1.00  0.00     0.150 C 
ATOM     11  C   UNL     1      23.871 -40.925  13.407  1.00  0.00     0.174 C 
ATOM     12  O   UNL     1      25.951 -42.128  12.965  1.00  0.00    -0.344 OA
ATOM     13  C   UNL     1      24.006 -41.265  14.899  1.00  0.00     0.179 C 
ATOM     14  C   UNL     1      24.808 -42.551  15.099  1.00  0.00     0.202 C 
ATOM     15  C   UNL     1      25.191 -40.655  11.260  1.00  0.00     0.041 C 
BRANCH  11  16
ATOM     16  O   UNL     1      23.184 -39.665  13.267  1.00  0.00    -0.388 OA
ATOM     17  H   UNL     1      22.481 -39.822  12.607  1.00  0.00     0.211 HD
ENDBRANCH  11  16
BRANCH  13  18
ATOM     18  O   UNL     1      22.699 -41.443  15.474  1.00  0.00    -0.387 OA
ATOM     19  H   UNL     1      22.247 -42.099  14.905  1.00  0.00     0.211 HD
ENDBRANCH  13  18
BRANCH  14  20
ATOM     20  O   UNL     1      24.028 -43.666  14.634  1.00  0.00    -0.385 OA
ATOM     21  H   UNL     1      24.266 -44.401  15.236  1.00  0.00     0.211 HD
ENDBRANCH  14  20
ENDBRANCH   8   9
ENDBRANCH   7   8
ENDBRANCH   1   7
BRANCH   2  22
ATOM     22  O   UNL     1      29.625 -43.670  17.521  1.00  0.00    -0.387 OA
ATOM     23  H   UNL     1      29.321 -44.586  17.691  1.00  0.00     0.211 HD
ENDBRANCH   2  22
BRANCH   3  24
ATOM     24  O   UNL     1      28.565 -43.518  20.148  1.00  0.00    -0.387 OA
ATOM     25  H   UNL     1      28.087 -44.202  19.635  1.00  0.00     0.211 HD
ENDBRANCH   3  24
BRANCH   5  26
ATOM     26  O   UNL     1      26.373 -39.421  18.944  1.00  0.00    -0.347 OA
BRANCH  26  27
ATOM     27  C   UNL     1      25.491 -39.115  17.857  1.00  0.00     0.200 C 
BRANCH  27  28
ATOM     28  C   UNL     1      24.146 -38.459  18.240  1.00  0.00     0.170 C 
BRANCH  28  29
ATOM     29  C   UNL     1      23.858 -37.057  17.733  1.00  0.00    -0.013 A 
ATOM     30  C   UNL     1      24.788 -36.460  16.859  1.00  0.00     0.056 A 
ATOM     31  C   UNL     1      22.732 -36.309  18.115  1.00  0.00     0.010 A 
ATOM     32  C   UNL     1      24.570 -35.180  16.363  1.00  0.00     0.157 A 
ATOM     33  C   UNL     1      22.529 -35.012  17.630  1.00  0.00     0.050 A 
ATOM     34  C   UNL     1      23.451 -34.458  16.756  1.00  0.00     0.157 A 
BRANCH  32  35
ATOM     35  O   UNL     1      25.424 -34.604  15.463  1.00  0.00    -0.504 OA
ATOM     36  H   UNL     1      25.324 -33.627  15.539  1.00  0.00     0.293 HD
ENDBRANCH  32  35
BRANCH  34  37
ATOM     37  O   UNL     1      23.244 -33.197  16.277  1.00  0.00    -0.504 OA
ATOM     38  H   UNL     1      22.807 -33.333  15.413  1.00  0.00     0.293 HD
ENDBRANCH  34  37
ENDBRANCH  28  29
BRANCH  28  39
ATOM     39  O   UNL     1      23.975 -38.504  19.660  1.00  0.00    -0.386 OA
ATOM     40  H   UNL     1      23.054 -38.803  19.816  1.00  0.00     0.211 HD
ENDBRANCH  28  39
ENDBRANCH  27  28
ENDBRANCH  26  27
ENDBRANCH   5  26
BRANCH   4  41
ATOM     41  O   UNL     1      27.683 -40.918  20.958  1.00  0.00    -0.385 OA
ATOM     42  H   UNL     1      28.378 -40.233  20.890  1.00  0.00     0.211 HD
ENDBRANCH   4  41
TORSDOF 16
ENDMDL
MODEL 8
REMARK VINA RESULT:    -7.992      4.859      7.848
REMARK INTER + INTRA:         -14.631
REMARK INTER:                 -13.276
REMARK INTRA:                  -1.355
REMARK UNBOUND:                -1.266
REMARK SMILES C[C@@H]1O[C@@H](OC[C@H]2O[C@@H](OCC(O)c3ccc(O)c(O)c3)[C@H](O)[C@@H](O)[C@@H]2O)[C@H](O)[C@H](O)[C@H]1O
REMARK SMILES IDX 7 1 26 2 24 3 22 4 9 5 8 6 6 7 5 8 4 9 2 10 32 11 3 12 30 13
REMARK SMILES IDX 28 14 1 15 33 16 31 18 29 20 27 22 25 24 10 26 11 27 12 28
REMARK SMILES IDX 14 29 21 30 15 31 19 32 16 33 17 34 20 35 18 37 13 39 23 41
REMARK H PARENT 33 17 31 19 29 21 27 23 25 25 20 36 18 38 13 40 23 42
ROOT
ATOM      1  C   UNL     1      27.441 -40.287  18.877  1.00  0.00     0.178 C 
ATOM      2  C   UNL     1      28.232 -40.991  19.989  1.00  0.00     0.177 C 
ATOM      3  C   UNL     1      28.559 -42.422  19.566  1.00  0.00     0.179 C 
ATOM      4  C   UNL     1      29.257 -42.428  18.211  1.00  0.00     0.202 C 
ATOM      5  C   UNL     1      28.401 -41.663  17.184  1.00  0.00     0.282 C 
ATOM      6  O   UNL     1      28.175 -40.325  17.633  1.00  0.00    -0.341 OA
ENDROOT
BRANCH   1   7
ATOM      7  C   UNL     1      27.172 -38.821  19.253  1.00  0.00     0.198 C 
BRANCH   7   8
ATOM      8  O   UNL     1      25.851 -38.715  19.799  1.00  0.00    -0.347 OA
BRANCH   8   9
ATOM      9  C   UNL     1      25.644 -37.505  20.532  1.00  0.00     0.281 C 
ATOM     10  C   UNL     1      23.264 -37.583  20.257  1.00  0.00     0.150 C 
ATOM     11  C   UNL     1      23.255 -36.318  19.383  1.00  0.00     0.174 C 
ATOM     12  O   UNL     1      24.360 -37.560  21.174  1.00  0.00    -0.344 OA
ATOM     13  C   UNL     1      24.601 -36.192  18.656  1.00  0.00     0.179 C 
ATOM     14  C   UNL     1      25.767 -36.249  19.643  1.00  0.00     0.202 C 
ATOM     15  C   UNL     1      21.988 -37.709  21.083  1.00  0.00     0.041 C 
BRANCH  11  16
ATOM     16  O   UNL     1      22.190 -36.346  18.411  1.00  0.00    -0.388 OA
ATOM     17  H   UNL     1      21.893 -37.276  18.374  1.00  0.00     0.211 HD
ENDBRANCH  11  16
BRANCH  13  18
ATOM     18  O   UNL     1      24.655 -34.938  17.951  1.00  0.00    -0.387 OA
ATOM     19  H   UNL     1      25.571 -34.612  18.062  1.00  0.00     0.211 HD
ENDBRANCH  13  18
BRANCH  14  20
ATOM     20  O   UNL     1      25.769 -35.047  20.433  1.00  0.00    -0.385 OA
ATOM     21  H   UNL     1      25.159 -34.441  19.963  1.00  0.00     0.211 HD
ENDBRANCH  14  20
ENDBRANCH   8   9
ENDBRANCH   7   8
ENDBRANCH   1   7
BRANCH   2  22
ATOM     22  O   UNL     1      27.493 -41.023  21.211  1.00  0.00    -0.387 OA
ATOM     23  H   UNL     1      28.167 -40.983  21.921  1.00  0.00     0.211 HD
ENDBRANCH   2  22
BRANCH   3  24
ATOM     24  O   UNL     1      29.397 -43.025  20.564  1.00  0.00    -0.387 OA
ATOM     25  H   UNL     1      28.943 -42.853  21.415  1.00  0.00     0.211 HD
ENDBRANCH   3  24
BRANCH   5  26
ATOM     26  O   UNL     1      29.156 -41.661  15.969  1.00  0.00    -0.347 OA
BRANCH  26  27
ATOM     27  C   UNL     1      28.464 -42.184  14.828  1.00  0.00     0.200 C 
BRANCH  27  28
ATOM     28  C   UNL     1      27.355 -41.286  14.238  1.00  0.00     0.170 C 
BRANCH  28  29
ATOM     29  C   UNL     1      25.945 -41.842  14.155  1.00  0.00    -0.013 A 
ATOM     30  C   UNL     1      24.945 -41.242  14.945  1.00  0.00     0.056 A 
ATOM     31  C   UNL     1      25.590 -42.945  13.360  1.00  0.00     0.010 A 
ATOM     32  C   UNL     1      23.636 -41.710  14.904  1.00  0.00     0.157 A 
ATOM     33  C   UNL     1      24.276 -43.426  13.340  1.00  0.00     0.050 A 
ATOM     34  C   UNL     1      23.309 -42.803  14.112  1.00  0.00     0.157 A 
BRANCH  32  35
ATOM     35  O   UNL     1      22.634 -41.104  15.611  1.00  0.00    -0.504 OA
ATOM     36  H   UNL     1      22.796 -40.132  15.584  1.00  0.00     0.293 HD
ENDBRANCH  32  35
BRANCH  34  37
ATOM     37  O   UNL     1      22.026 -43.268  14.082  1.00  0.00    -0.504 OA
ATOM     38  H   UNL     1      21.500 -42.513  13.752  1.00  0.00     0.293 HD
ENDBRANCH  34  37
ENDBRANCH  28  29
BRANCH  28  39
ATOM     39  O   UNL     1      27.760 -40.803  12.953  1.00  0.00    -0.386 OA
ATOM     40  H   UNL     1      27.006 -40.278  12.607  1.00  0.00     0.211 HD
ENDBRANCH  28  39
ENDBRANCH  27  28
ENDBRANCH  26  27
ENDBRANCH   5  26
BRANCH   4  41
ATOM     41  O   UNL     1      29.472 -43.790  17.808  1.00  0.00    -0.385 OA
ATOM     42  H   UNL     1      28.656 -44.265  18.063  1.00  0.00     0.211 HD
ENDBRANCH   4  41
TORSDOF 16
ENDMDL
MODEL 9
REMARK VINA RESULT:    -7.947      4.738      7.958
REMARK INTER + INTRA:         -14.556
REMARK INTER:                 -13.073
REMARK INTRA:                  -1.482
REMARK UNBOUND:                -1.266
REMARK SMILES C[C@@H]1O[C@@H](OC[C@H]2O[C@@H](OCC(O)c3ccc(O)c(O)c3)[C@H](O)[C@@H](O)[C@@H]2O)[C@H](O)[C@H](O)[C@H]1O
REMARK SMILES IDX 7 1 26 2 24 3 22 4 9 5 8 6 6 7 5 8 4 9 2 10 32 11 3 12 30 13
REMARK SMILES IDX 28 14 1 15 33 16 31 18 29 20 27 22 25 24 10 26 11 27 12 28
REMARK SMILES IDX 14 29 21 30 15 31 19 32 16 33 17 34 20 35 18 37 13 39 23 41
REMARK H PARENT 33 17 31 19 29 21 27 23 25 25 20 36 18 38 13 40 23 42
ROOT
ATOM      1  C   UNL     1      26.252 -41.753  15.197  1.00  0.00     0.178 C 
ATOM      2  C   UNL     1      26.162 -41.524  13.681  1.00  0.00     0.177 C 
ATOM      3  C   UNL     1      24.702 -41.350  13.269  1.00  0.00     0.179 C 
ATOM      4  C   UNL     1      24.042 -40.257  14.100  1.00  0.00     0.202 C 
ATOM      5  C   UNL     1      24.227 -40.562  15.598  1.00  0.00     0.282 C 
ATOM      6  O   UNL     1      25.618 -40.669  15.910  1.00  0.00    -0.341 OA
ENDROOT
BRANCH   1   7
ATOM      7  C   UNL     1      27.721 -41.850  15.641  1.00  0.00     0.198 C 
BRANCH   7   8
ATOM      8  O   UNL     1      27.768 -42.035  17.061  1.00  0.00    -0.347 OA
BRANCH   8   9
ATOM      9  C   UNL     1      28.778 -41.247  17.695  1.00  0.00     0.281 C 
ATOM     10  C   UNL     1      29.545 -43.070  19.049  1.00  0.00     0.150 C 
ATOM     11  C   UNL     1      29.081 -42.390  20.348  1.00  0.00     0.174 C 
ATOM     12  O   UNL     1      29.877 -42.098  18.056  1.00  0.00    -0.344 OA
ATOM     13  C   UNL     1      27.897 -41.462  20.042  1.00  0.00     0.179 C 
ATOM     14  C   UNL     1      28.243 -40.480  18.922  1.00  0.00     0.202 C 
ATOM     15  C   UNL     1      30.785 -43.929  19.272  1.00  0.00     0.041 C 
BRANCH  11  16
ATOM     16  O   UNL     1      28.686 -43.353  21.346  1.00  0.00    -0.388 OA
ATOM     17  H   UNL     1      29.301 -44.105  21.243  1.00  0.00     0.211 HD
ENDBRANCH  11  16
BRANCH  13  18
ATOM     18  O   UNL     1      27.552 -40.713  21.221  1.00  0.00    -0.387 OA
ATOM     19  H   UNL     1      27.935 -39.822  21.090  1.00  0.00     0.211 HD
ENDBRANCH  13  18
BRANCH  14  20
ATOM     20  O   UNL     1      29.211 -39.535  19.412  1.00  0.00    -0.385 OA
ATOM     21  H   UNL     1      29.387 -38.945  18.649  1.00  0.00     0.211 HD
ENDBRANCH  14  20
ENDBRANCH   8   9
ENDBRANCH   7   8
ENDBRANCH   1   7
BRANCH   2  22
ATOM     22  O   UNL     1      26.725 -42.619  12.957  1.00  0.00    -0.387 OA
ATOM     23  H   UNL     1      27.601 -42.304  12.653  1.00  0.00     0.211 HD
ENDBRANCH   2  22
BRANCH   3  24
ATOM     24  O   UNL     1      24.646 -41.022  11.872  1.00  0.00    -0.387 OA
ATOM     25  H   UNL     1      24.182 -41.775  11.452  1.00  0.00     0.211 HD
ENDBRANCH   3  24
BRANCH   5  26
ATOM     26  O   UNL     1      23.641 -39.460  16.298  1.00  0.00    -0.347 OA
BRANCH  26  27
ATOM     27  C   UNL     1      24.116 -39.276  17.637  1.00  0.00     0.200 C 
BRANCH  27  28
ATOM     28  C   UNL     1      24.924 -37.985  17.898  1.00  0.00     0.170 C 
BRANCH  28  29
ATOM     29  C   UNL     1      24.353 -36.667  17.406  1.00  0.00    -0.013 A 
ATOM     30  C   UNL     1      25.093 -35.932  16.460  1.00  0.00     0.056 A 
ATOM     31  C   UNL     1      23.143 -36.123  17.869  1.00  0.00     0.010 A 
ATOM     32  C   UNL     1      24.614 -34.720  15.975  1.00  0.00     0.157 A 
ATOM     33  C   UNL     1      22.676 -34.893  17.394  1.00  0.00     0.050 A 
ATOM     34  C   UNL     1      23.416 -34.202  16.449  1.00  0.00     0.157 A 
BRANCH  32  35
ATOM     35  O   UNL     1      25.282 -34.019  15.008  1.00  0.00    -0.504 OA
ATOM     36  H   UNL     1      24.617 -33.708  14.352  1.00  0.00     0.293 HD
ENDBRANCH  32  35
BRANCH  34  37
ATOM     37  O   UNL     1      22.953 -33.007  15.979  1.00  0.00    -0.504 OA
ATOM     38  H   UNL     1      23.745 -32.434  15.945  1.00  0.00     0.293 HD
ENDBRANCH  34  37
ENDBRANCH  28  29
BRANCH  28  39
ATOM     39  O   UNL     1      26.259 -38.146  17.409  1.00  0.00    -0.386 OA
ATOM     40  H   UNL     1      26.511 -37.284  17.012  1.00  0.00     0.211 HD
ENDBRANCH  28  39
ENDBRANCH  27  28
ENDBRANCH  26  27
ENDBRANCH   5  26
BRANCH   4  41
ATOM     41  O   UNL     1      22.652 -40.180  13.745  1.00  0.00    -0.385 OA
ATOM     42  H   UNL     1      22.621 -39.605  12.955  1.00  0.00     0.211 HD
ENDBRANCH   4  41
TORSDOF 16
ENDMDL
