MODEL 1
REMARK VINA RESULT:    -8.854      0.000      0.000
REMARK INTER + INTRA:         -16.097
REMARK INTER:                 -14.806
REMARK INTRA:                  -1.291
REMARK UNBOUND:                -1.291
REMARK SMILES C[C@@H]1O[C@@H](OC[C@H]2O[C@@H](OCC(O)c3ccc(O)c(O)c3)[C@H](O)[C@@H](O)[C@@H]2O)[C@H](O)[C@H](O)[C@H]1O
REMARK SMILES IDX 7 1 26 2 24 3 22 4 9 5 8 6 6 7 5 8 4 9 2 10 32 11 3 12 30 13
REMARK SMILES IDX 28 14 1 15 33 16 31 18 29 20 27 22 25 24 10 26 11 27 12 28
REMARK SMILES IDX 14 29 21 30 15 31 19 32 16 33 17 34 20 35 18 37 13 39 23 41
REMARK H PARENT 33 17 31 19 29 21 27 23 25 25 20 36 18 38 13 40 23 42
ROOT
ATOM      1  C   UNL     1      23.591 -36.447  20.665  1.00  0.00     0.178 C 
ATOM      2  C   UNL     1      24.939 -37.077  20.284  1.00  0.00     0.177 C 
ATOM      3  C   UNL     1      24.821 -37.771  18.928  1.00  0.00     0.179 C 
ATOM      4  C   UNL     1      24.271 -36.807  17.884  1.00  0.00     0.202 C 
ATOM      5  C   UNL     1      22.945 -36.204  18.384  1.00  0.00     0.282 C 
ATOM      6  O   UNL     1      23.147 -35.540  19.633  1.00  0.00    -0.341 OA
ENDROOT
BRANCH   1   7
ATOM      7  C   UNL     1      23.712 -35.677  21.990  1.00  0.00     0.198 C 
BRANCH   7   8
ATOM      8  O   UNL     1      24.693 -34.643  21.840  1.00  0.00    -0.347 OA
BRANCH   8   9
ATOM      9  C   UNL     1      24.226 -33.362  22.269  1.00  0.00     0.281 C 
ATOM     10  C   UNL     1      26.415 -32.388  22.198  1.00  0.00     0.150 C 
ATOM     11  C   UNL     1      26.452 -32.189  23.723  1.00  0.00     0.174 C 
ATOM     12  O   UNL     1      25.073 -32.345  21.710  1.00  0.00    -0.344 OA
ATOM     13  C   UNL     1      25.568 -33.250  24.395  1.00  0.00     0.179 C 
ATOM     14  C   UNL     1      24.157 -33.244  23.806  1.00  0.00     0.202 C 
ATOM     15  C   UNL     1      27.195 -31.300  21.468  1.00  0.00     0.041 C 
BRANCH  11  16
ATOM     16  O   UNL     1      27.792 -32.286  24.244  1.00  0.00    -0.388 OA
ATOM     17  H   UNL     1      28.203 -31.416  24.075  1.00  0.00     0.211 HD
ENDBRANCH  11  16
BRANCH  13  18
ATOM     18  O   UNL     1      25.480 -32.983  25.806  1.00  0.00    -0.387 OA
ATOM     19  H   UNL     1      24.668 -33.436  26.110  1.00  0.00     0.211 HD
ENDBRANCH  13  18
BRANCH  14  20
ATOM     20  O   UNL     1      23.488 -32.037  24.209  1.00  0.00    -0.385 OA
ATOM     21  H   UNL     1      24.004 -31.317  23.790  1.00  0.00     0.211 HD
ENDBRANCH  14  20
ENDBRANCH   8   9
ENDBRANCH   7   8
ENDBRANCH   1   7
BRANCH   2  22
ATOM     22  O   UNL     1      25.361 -38.029  21.261  1.00  0.00    -0.387 OA
ATOM     23  H   UNL     1      25.211 -38.905  20.849  1.00  0.00     0.211 HD
ENDBRANCH   2  22
BRANCH   3  24
ATOM     24  O   UNL     1      26.116 -38.251  18.535  1.00  0.00    -0.387 OA
ATOM     25  H   UNL     1      26.596 -38.407  19.374  1.00  0.00     0.211 HD
ENDBRANCH   3  24
BRANCH   5  26
ATOM     26  O   UNL     1      22.537 -35.268  17.381  1.00  0.00    -0.347 OA
BRANCH  26  27
ATOM     27  C   UNL     1      23.360 -34.101  17.275  1.00  0.00     0.200 C 
BRANCH  27  28
ATOM     28  C   UNL     1      23.373 -33.405  15.896  1.00  0.00     0.170 C 
BRANCH  28  29
ATOM     29  C   UNL     1      24.648 -33.459  15.074  1.00  0.00    -0.013 A 
ATOM     30  C   UNL     1      25.013 -32.318  14.334  1.00  0.00     0.056 A 
ATOM     31  C   UNL     1      25.466 -34.598  14.982  1.00  0.00     0.010 A 
ATOM     32  C   UNL     1      26.173 -32.314  13.567  1.00  0.00     0.157 A 
ATOM     33  C   UNL     1      26.621 -34.596  14.192  1.00  0.00     0.050 A 
ATOM     34  C   UNL     1      26.965 -33.452  13.491  1.00  0.00     0.157 A 
BRANCH  32  35
ATOM     35  O   UNL     1      26.583 -31.197  12.892  1.00  0.00    -0.504 OA
ATOM     36  H   UNL     1      27.262 -31.478  12.236  1.00  0.00     0.293 HD
ENDBRANCH  32  35
BRANCH  34  37
ATOM     37  O   UNL     1      28.097 -33.450  12.729  1.00  0.00    -0.504 OA
ATOM     38  H   UNL     1      28.798 -33.771  13.331  1.00  0.00     0.293 HD
ENDBRANCH  34  37
ENDBRANCH  28  29
BRANCH  28  39
ATOM     39  O   UNL     1      22.948 -32.046  16.039  1.00  0.00    -0.386 OA
ATOM     40  H   UNL     1      23.759 -31.497  15.976  1.00  0.00     0.211 HD
ENDBRANCH  28  39
ENDBRANCH  27  28
ENDBRANCH  26  27
ENDBRANCH   5  26
BRANCH   4  41
ATOM     41  O   UNL     1      24.095 -37.516  16.647  1.00  0.00    -0.385 OA
ATOM     42  H   UNL     1      24.980 -37.529  16.231  1.00  0.00     0.211 HD
ENDBRANCH   4  41
TORSDOF 16
ENDMDL
MODEL 2
REMARK VINA RESULT:    -8.298      3.447      7.733
REMARK INTER + INTRA:         -15.167
REMARK INTER:                 -14.461
REMARK INTRA:                  -0.706
REMARK UNBOUND:                -1.291
REMARK SMILES C[C@@H]1O[C@@H](OC[C@H]2O[C@@H](OCC(O)c3ccc(O)c(O)c3)[C@H](O)[C@@H](O)[C@@H]2O)[C@H](O)[C@H](O)[C@H]1O
REMARK SMILES IDX 7 1 26 2 24 3 22 4 9 5 8 6 6 7 5 8 4 9 2 10 32 11 3 12 30 13
REMARK SMILES IDX 28 14 1 15 33 16 31 18 29 20 27 22 25 24 10 26 11 27 12 28
REMARK SMILES IDX 14 29 21 30 15 31 19 32 16 33 17 34 20 35 18 37 13 39 23 41
REMARK H PARENT 33 17 31 19 29 21 27 23 25 25 20 36 18 38 13 40 23 42
ROOT
ATOM      1  C   UNL     1      24.911 -37.874  17.219  1.00  0.00     0.178 C 
ATOM      2  C   UNL     1      23.981 -38.554  18.235  1.00  0.00     0.177 C 
ATOM      3  C   UNL     1      23.888 -37.706  19.502  1.00  0.00     0.179 C 
ATOM      4  C   UNL     1      23.488 -36.277  19.155  1.00  0.00     0.202 C 
ATOM      5  C   UNL     1      24.457 -35.708  18.102  1.00  0.00     0.282 C 
ATOM      6  O   UNL     1      24.455 -36.534  16.936  1.00  0.00    -0.341 OA
ENDROOT
BRANCH   1   7
ATOM      7  C   UNL     1      24.954 -38.675  15.908  1.00  0.00     0.198 C 
BRANCH   7   8
ATOM      8  O   UNL     1      25.644 -39.910  16.138  1.00  0.00    -0.347 OA
BRANCH   8   9
ATOM      9  C   UNL     1      26.067 -40.548  14.930  1.00  0.00     0.281 C 
ATOM     10  C   UNL     1      23.827 -40.799  14.116  1.00  0.00     0.150 C 
ATOM     11  C   UNL     1      23.891 -42.333  14.211  1.00  0.00     0.174 C 
ATOM     12  O   UNL     1      25.124 -40.248  13.888  1.00  0.00    -0.344 OA
ATOM     13  C   UNL     1      24.881 -42.733  15.314  1.00  0.00     0.179 C 
ATOM     14  C   UNL     1      26.242 -42.072  15.099  1.00  0.00     0.202 C 
ATOM     15  C   UNL     1      22.934 -40.341  12.968  1.00  0.00     0.041 C 
BRANCH  11  16
ATOM     16  O   UNL     1      22.600 -42.907  14.497  1.00  0.00    -0.388 OA
ATOM     17  H   UNL     1      22.784 -43.789  14.876  1.00  0.00     0.211 HD
ENDBRANCH  11  16
BRANCH  13  18
ATOM     18  O   UNL     1      25.057 -44.162  15.311  1.00  0.00    -0.387 OA
ATOM     19  H   UNL     1      25.084 -44.426  16.252  1.00  0.00     0.211 HD
ENDBRANCH  13  18
BRANCH  14  20
ATOM     20  O   UNL     1      26.869 -42.657  13.944  1.00  0.00    -0.385 OA
ATOM     21  H   UNL     1      26.127 -42.859  13.336  1.00  0.00     0.211 HD
ENDBRANCH  14  20
ENDBRANCH   8   9
ENDBRANCH   7   8
ENDBRANCH   1   7
BRANCH   2  22
ATOM     22  O   UNL     1      24.454 -39.858  18.580  1.00  0.00    -0.387 OA
ATOM     23  H   UNL     1      23.655 -40.425  18.599  1.00  0.00     0.211 HD
ENDBRANCH   2  22
BRANCH   3  24
ATOM     24  O   UNL     1      22.927 -38.295  20.390  1.00  0.00    -0.387 OA
ATOM     25  H   UNL     1      22.232 -38.662  19.806  1.00  0.00     0.211 HD
ENDBRANCH   3  24
BRANCH   5  26
ATOM     26  O   UNL     1      23.971 -34.399  17.788  1.00  0.00    -0.347 OA
BRANCH  26  27
ATOM     27  C   UNL     1      23.003 -34.352  16.733  1.00  0.00     0.200 C 
BRANCH  27  28
ATOM     28  C   UNL     1      23.226 -33.267  15.657  1.00  0.00     0.170 C 
BRANCH  28  29
ATOM     29  C   UNL     1      24.530 -33.278  14.881  1.00  0.00    -0.013 A 
ATOM     30  C   UNL     1      24.956 -32.081  14.274  1.00  0.00     0.056 A 
ATOM     31  C   UNL     1      25.320 -34.427  14.706  1.00  0.00     0.010 A 
ATOM     32  C   UNL     1      26.144 -32.036  13.555  1.00  0.00     0.157 A 
ATOM     33  C   UNL     1      26.505 -34.382  13.963  1.00  0.00     0.050 A 
ATOM     34  C   UNL     1      26.908 -33.185  13.394  1.00  0.00     0.157 A 
BRANCH  32  35
ATOM     35  O   UNL     1      26.612 -30.870  13.011  1.00  0.00    -0.504 OA
ATOM     36  H   UNL     1      26.399 -30.884  12.050  1.00  0.00     0.293 HD
ENDBRANCH  32  35
BRANCH  34  37
ATOM     37  O   UNL     1      28.069 -33.142  12.678  1.00  0.00    -0.504 OA
ATOM     38  H   UNL     1      28.282 -34.080  12.502  1.00  0.00     0.293 HD
ENDBRANCH  34  37
ENDBRANCH  28  29
BRANCH  28  39
ATOM     39  O   UNL     1      23.015 -31.972  16.228  1.00  0.00    -0.386 OA
ATOM     40  H   UNL     1      23.906 -31.580  16.356  1.00  0.00     0.211 HD
ENDBRANCH  28  39
ENDBRANCH  27  28
ENDBRANCH  26  27
ENDBRANCH   5  26
BRANCH   4  41
ATOM     41  O   UNL     1      23.493 -35.490  20.357  1.00  0.00    -0.385 OA
ATOM     42  H   UNL     1      22.615 -35.059  20.385  1.00  0.00     0.211 HD
ENDBRANCH   4  41
TORSDOF 16
ENDMDL
MODEL 3
REMARK VINA RESULT:    -8.276      1.361      2.015
REMARK INTER + INTRA:         -15.131
REMARK INTER:                 -14.299
REMARK INTRA:                  -0.831
REMARK UNBOUND:                -1.291
REMARK SMILES C[C@@H]1O[C@@H](OC[C@H]2O[C@@H](OCC(O)c3ccc(O)c(O)c3)[C@H](O)[C@@H](O)[C@@H]2O)[C@H](O)[C@H](O)[C@H]1O
REMARK SMILES IDX 7 1 26 2 24 3 22 4 9 5 8 6 6 7 5 8 4 9 2 10 32 11 3 12 30 13
REMARK SMILES IDX 28 14 1 15 33 16 31 18 29 20 27 22 25 24 10 26 11 27 12 28
REMARK SMILES IDX 14 29 21 30 15 31 19 32 16 33 17 34 20 35 18 37 13 39 23 41
REMARK H PARENT 33 17 31 19 29 21 27 23 25 25 20 36 18 38 13 40 23 42
ROOT
ATOM      1  C   UNL     1      25.691 -35.703  20.120  1.00  0.00     0.178 C 
ATOM      2  C   UNL     1      25.833 -37.164  19.669  1.00  0.00     0.177 C 
ATOM      3  C   UNL     1      24.483 -37.691  19.185  1.00  0.00     0.179 C 
ATOM      4  C   UNL     1      23.904 -36.768  18.121  1.00  0.00     0.202 C 
ATOM      5  C   UNL     1      23.845 -35.327  18.661  1.00  0.00     0.282 C 
ATOM      6  O   UNL     1      25.150 -34.895  19.052  1.00  0.00    -0.341 OA
ENDROOT
BRANCH   1   7
ATOM      7  C   UNL     1      27.056 -35.132  20.535  1.00  0.00     0.198 C 
BRANCH   7   8
ATOM      8  O   UNL     1      26.944 -34.559  21.844  1.00  0.00    -0.347 OA
BRANCH   8   9
ATOM      9  C   UNL     1      26.248 -33.310  21.850  1.00  0.00     0.281 C 
ATOM     10  C   UNL     1      27.170 -32.651  23.962  1.00  0.00     0.150 C 
ATOM     11  C   UNL     1      25.798 -32.705  24.656  1.00  0.00     0.174 C 
ATOM     12  O   UNL     1      27.027 -32.345  22.575  1.00  0.00    -0.344 OA
ATOM     13  C   UNL     1      24.905 -33.727  23.937  1.00  0.00     0.179 C 
ATOM     14  C   UNL     1      24.827 -33.431  22.439  1.00  0.00     0.202 C 
ATOM     15  C   UNL     1      28.069 -31.579  24.571  1.00  0.00     0.041 C 
BRANCH  11  16
ATOM     16  O   UNL     1      25.914 -33.069  26.046  1.00  0.00    -0.388 OA
ATOM     17  H   UNL     1      25.104 -32.730  26.475  1.00  0.00     0.211 HD
ENDBRANCH  11  16
BRANCH  13  18
ATOM     18  O   UNL     1      23.576 -33.678  24.487  1.00  0.00    -0.387 OA
ATOM     19  H   UNL     1      23.287 -32.748  24.397  1.00  0.00     0.211 HD
ENDBRANCH  13  18
BRANCH  14  20
ATOM     20  O   UNL     1      24.073 -32.222  22.240  1.00  0.00    -0.385 OA
ATOM     21  H   UNL     1      24.398 -31.612  22.935  1.00  0.00     0.211 HD
ENDBRANCH  14  20
ENDBRANCH   8   9
ENDBRANCH   7   8
ENDBRANCH   1   7
BRANCH   2  22
ATOM     22  O   UNL     1      26.304 -37.992  20.734  1.00  0.00    -0.387 OA
ATOM     23  H   UNL     1      26.120 -37.487  21.553  1.00  0.00     0.211 HD
ENDBRANCH   2  22
BRANCH   3  24
ATOM     24  O   UNL     1      24.659 -39.015  18.660  1.00  0.00    -0.387 OA
ATOM     25  H   UNL     1      25.424 -38.949  18.052  1.00  0.00     0.211 HD
ENDBRANCH   3  24
BRANCH   5  26
ATOM     26  O   UNL     1      23.356 -34.523  17.582  1.00  0.00    -0.347 OA
BRANCH  26  27
ATOM     27  C   UNL     1      24.033 -34.713  16.334  1.00  0.00     0.200 C 
BRANCH  27  28
ATOM     28  C   UNL     1      23.848 -33.593  15.286  1.00  0.00     0.170 C 
BRANCH  28  29
ATOM     29  C   UNL     1      25.068 -33.119  14.516  1.00  0.00    -0.013 A 
ATOM     30  C   UNL     1      26.118 -34.033  14.303  1.00  0.00     0.056 A 
ATOM     31  C   UNL     1      25.221 -31.808  14.035  1.00  0.00     0.010 A 
ATOM     32  C   UNL     1      27.256 -33.651  13.601  1.00  0.00     0.157 A 
ATOM     33  C   UNL     1      26.378 -31.422  13.348  1.00  0.00     0.050 A 
ATOM     34  C   UNL     1      27.386 -32.349  13.136  1.00  0.00     0.157 A 
BRANCH  32  35
ATOM     35  O   UNL     1      28.260 -34.537  13.324  1.00  0.00    -0.504 OA
ATOM     36  H   UNL     1      28.590 -34.340  12.416  1.00  0.00     0.293 HD
ENDBRANCH  32  35
BRANCH  34  37
ATOM     37  O   UNL     1      28.508 -31.972  12.456  1.00  0.00    -0.504 OA
ATOM     38  H   UNL     1      28.174 -31.427  11.716  1.00  0.00     0.293 HD
ENDBRANCH  34  37
ENDBRANCH  28  29
BRANCH  28  39
ATOM     39  O   UNL     1      23.191 -32.474  15.887  1.00  0.00    -0.386 OA
ATOM     40  H   UNL     1      23.214 -31.753  15.222  1.00  0.00     0.211 HD
ENDBRANCH  28  39
ENDBRANCH  27  28
ENDBRANCH  26  27
ENDBRANCH   5  26
BRANCH   4  41
ATOM     41  O   UNL     1      22.600 -37.247  17.752  1.00  0.00    -0.385 OA
ATOM     42  H   UNL     1      21.971 -36.673  18.233  1.00  0.00     0.211 HD
ENDBRANCH   4  41
TORSDOF 16
ENDMDL
MODEL 4
REMARK VINA RESULT:    -8.075      1.681      2.758
REMARK INTER + INTRA:         -14.795
REMARK INTER:                 -13.249
REMARK INTRA:                  -1.546
REMARK UNBOUND:                -1.291
REMARK SMILES C[C@@H]1O[C@@H](OC[C@H]2O[C@@H](OCC(O)c3ccc(O)c(O)c3)[C@H](O)[C@@H](O)[C@@H]2O)[C@H](O)[C@H](O)[C@H]1O
REMARK SMILES IDX 7 1 26 2 24 3 22 4 9 5 8 6 6 7 5 8 4 9 2 10 32 11 3 12 30 13
REMARK SMILES IDX 28 14 1 15 33 16 31 18 29 20 27 22 25 24 10 26 11 27 12 28
REMARK SMILES IDX 14 29 21 30 15 31 19 32 16 33 17 34 20 35 18 37 13 39 23 41
REMARK H PARENT 33 17 31 19 29 21 27 23 25 25 20 36 18 38 13 40 23 42
ROOT
ATOM      1  C   UNL     1      26.681 -36.464  20.052  1.00  0.00     0.178 C 
ATOM      2  C   UNL     1      27.484 -37.385  19.122  1.00  0.00     0.177 C 
ATOM      3  C   UNL     1      26.780 -38.734  18.994  1.00  0.00     0.179 C 
ATOM      4  C   UNL     1      25.330 -38.538  18.569  1.00  0.00     0.202 C 
ATOM      5  C   UNL     1      24.632 -37.568  19.541  1.00  0.00     0.282 C 
ATOM      6  O   UNL     1      25.326 -36.320  19.573  1.00  0.00    -0.341 OA
ENDROOT
BRANCH   1   7
ATOM      7  C   UNL     1      27.334 -35.074  20.130  1.00  0.00     0.198 C 
BRANCH   7   8
ATOM      8  O   UNL     1      27.159 -34.550  21.452  1.00  0.00    -0.347 OA
BRANCH   8   9
ATOM      9  C   UNL     1      26.441 -33.314  21.474  1.00  0.00     0.281 C 
ATOM     10  C   UNL     1      27.108 -32.807  23.719  1.00  0.00     0.150 C 
ATOM     11  C   UNL     1      25.670 -32.932  24.248  1.00  0.00     0.174 C 
ATOM     12  O   UNL     1      27.114 -32.397  22.351  1.00  0.00    -0.344 OA
ATOM     13  C   UNL     1      24.884 -33.907  23.360  1.00  0.00     0.179 C 
ATOM     14  C   UNL     1      24.966 -33.498  21.889  1.00  0.00     0.202 C 
ATOM     15  C   UNL     1      27.911 -31.774  24.503  1.00  0.00     0.041 C 
BRANCH  11  16
ATOM     16  O   UNL     1      25.638 -33.400  25.612  1.00  0.00    -0.388 OA
ATOM     17  H   UNL     1      26.545 -33.710  25.804  1.00  0.00     0.211 HD
ENDBRANCH  11  16
BRANCH  13  18
ATOM     18  O   UNL     1      23.501 -33.917  23.759  1.00  0.00    -0.387 OA
ATOM     19  H   UNL     1      23.007 -33.526  23.010  1.00  0.00     0.211 HD
ENDBRANCH  13  18
BRANCH  14  20
ATOM     20  O   UNL     1      24.214 -32.287  21.698  1.00  0.00    -0.385 OA
ATOM     21  H   UNL     1      23.277 -32.574  21.709  1.00  0.00     0.211 HD
ENDBRANCH  14  20
ENDBRANCH   8   9
ENDBRANCH   7   8
ENDBRANCH   1   7
BRANCH   2  22
ATOM     22  O   UNL     1      28.808 -37.594  19.617  1.00  0.00    -0.387 OA
ATOM     23  H   UNL     1      29.160 -36.698  19.799  1.00  0.00     0.211 HD
ENDBRANCH   2  22
BRANCH   3  24
ATOM     24  O   UNL     1      27.481 -39.538  18.033  1.00  0.00    -0.387 OA
ATOM     25  H   UNL     1      27.671 -40.380  18.495  1.00  0.00     0.211 HD
ENDBRANCH   3  24
BRANCH   5  26
ATOM     26  O   UNL     1      23.306 -37.390  19.033  1.00  0.00    -0.347 OA
BRANCH  26  27
ATOM     27  C   UNL     1      23.237 -36.860  17.704  1.00  0.00     0.200 C 
BRANCH  27  28
ATOM     28  C   UNL     1      22.906 -35.356  17.591  1.00  0.00     0.170 C 
BRANCH  28  29
ATOM     29  C   UNL     1      23.630 -34.536  16.539  1.00  0.00    -0.013 A 
ATOM     30  C   UNL     1      24.927 -34.936  16.158  1.00  0.00     0.056 A 
ATOM     31  C   UNL     1      23.093 -33.380  15.947  1.00  0.00     0.010 A 
ATOM     32  C   UNL     1      25.633 -34.222  15.196  1.00  0.00     0.157 A 
ATOM     33  C   UNL     1      23.816 -32.653  14.996  1.00  0.00     0.050 A 
ATOM     34  C   UNL     1      25.081 -33.081  14.627  1.00  0.00     0.157 A 
BRANCH  32  35
ATOM     35  O   UNL     1      26.865 -34.627  14.763  1.00  0.00    -0.504 OA
ATOM     36  H   UNL     1      27.308 -33.847  14.354  1.00  0.00     0.293 HD
ENDBRANCH  32  35
BRANCH  34  37
ATOM     37  O   UNL     1      25.780 -32.376  13.691  1.00  0.00    -0.504 OA
ATOM     38  H   UNL     1      26.699 -32.369  14.026  1.00  0.00     0.293 HD
ENDBRANCH  34  37
ENDBRANCH  28  29
BRANCH  28  39
ATOM     39  O   UNL     1      23.049 -34.734  18.871  1.00  0.00    -0.386 OA
ATOM     40  H   UNL     1      22.151 -34.708  19.266  1.00  0.00     0.211 HD
ENDBRANCH  28  39
ENDBRANCH  27  28
ENDBRANCH  26  27
ENDBRANCH   5  26
BRANCH   4  41
ATOM     41  O   UNL     1      24.678 -39.818  18.541  1.00  0.00    -0.385 OA
ATOM     42  H   UNL     1      23.779 -39.640  18.201  1.00  0.00     0.211 HD
ENDBRANCH   4  41
TORSDOF 16
ENDMDL
MODEL 5
REMARK VINA RESULT:    -8.075      2.151      3.897
REMARK INTER + INTRA:         -14.794
REMARK INTER:                 -13.241
REMARK INTRA:                  -1.554
REMARK UNBOUND:                -1.291
REMARK SMILES C[C@@H]1O[C@@H](OC[C@H]2O[C@@H](OCC(O)c3ccc(O)c(O)c3)[C@H](O)[C@@H](O)[C@@H]2O)[C@H](O)[C@H](O)[C@H]1O
REMARK SMILES IDX 7 1 26 2 24 3 22 4 9 5 8 6 6 7 5 8 4 9 2 10 32 11 3 12 30 13
REMARK SMILES IDX 28 14 1 15 33 16 31 18 29 20 27 22 25 24 10 26 11 27 12 28
REMARK SMILES IDX 14 29 21 30 15 31 19 32 16 33 17 34 20 35 18 37 13 39 23 41
REMARK H PARENT 33 17 31 19 29 21 27 23 25 25 20 36 18 38 13 40 23 42
ROOT
ATOM      1  C   UNL     1      26.089 -36.051  20.868  1.00  0.00     0.178 C 
ATOM      2  C   UNL     1      27.006 -35.292  19.898  1.00  0.00     0.177 C 
ATOM      3  C   UNL     1      28.172 -36.187  19.480  1.00  0.00     0.179 C 
ATOM      4  C   UNL     1      27.655 -37.512  18.934  1.00  0.00     0.202 C 
ATOM      5  C   UNL     1      26.715 -38.166  19.964  1.00  0.00     0.282 C 
ATOM      6  O   UNL     1      25.633 -37.285  20.270  1.00  0.00    -0.341 OA
ENDROOT
BRANCH   1   7
ATOM      7  C   UNL     1      24.868 -35.194  21.237  1.00  0.00     0.198 C 
BRANCH   7   8
ATOM      8  O   UNL     1      25.088 -34.595  22.520  1.00  0.00    -0.347 OA
BRANCH   8   9
ATOM      9  C   UNL     1      24.478 -33.309  22.650  1.00  0.00     0.281 C 
ATOM     10  C   UNL     1      26.583 -32.179  22.853  1.00  0.00     0.150 C 
ATOM     11  C   UNL     1      26.300 -31.768  24.307  1.00  0.00     0.174 C 
ATOM     12  O   UNL     1      25.366 -32.314  22.116  1.00  0.00    -0.344 OA
ATOM     13  C   UNL     1      25.355 -32.793  24.951  1.00  0.00     0.179 C 
ATOM     14  C   UNL     1      24.094 -32.984  24.109  1.00  0.00     0.202 C 
ATOM     15  C   UNL     1      27.436 -31.144  22.128  1.00  0.00     0.041 C 
BRANCH  11  16
ATOM     16  O   UNL     1      27.510 -31.681  25.085  1.00  0.00    -0.388 OA
ATOM     17  H   UNL     1      27.415 -32.347  25.794  1.00  0.00     0.211 HD
ENDBRANCH  11  16
BRANCH  13  18
ATOM     18  O   UNL     1      24.970 -32.339  26.262  1.00  0.00    -0.387 OA
ATOM     19  H   UNL     1      25.152 -31.378  26.272  1.00  0.00     0.211 HD
ENDBRANCH  13  18
BRANCH  14  20
ATOM     20  O   UNL     1      23.295 -31.791  24.186  1.00  0.00    -0.385 OA
ATOM     21  H   UNL     1      22.552 -31.951  23.568  1.00  0.00     0.211 HD
ENDBRANCH  14  20
ENDBRANCH   8   9
ENDBRANCH   7   8
ENDBRANCH   1   7
BRANCH   2  22
ATOM     22  O   UNL     1      27.522 -34.102  20.496  1.00  0.00    -0.387 OA
ATOM     23  H   UNL     1      28.436 -34.017  20.154  1.00  0.00     0.211 HD
ENDBRANCH   2  22
BRANCH   3  24
ATOM     24  O   UNL     1      28.952 -35.504  18.486  1.00  0.00    -0.387 OA
ATOM     25  H   UNL     1      29.861 -35.853  18.592  1.00  0.00     0.211 HD
ENDBRANCH   3  24
BRANCH   5  26
ATOM     26  O   UNL     1      26.228 -39.361  19.347  1.00  0.00    -0.347 OA
BRANCH  26  27
ATOM     27  C   UNL     1      25.769 -39.200  17.999  1.00  0.00     0.200 C 
BRANCH  27  28
ATOM     28  C   UNL     1      24.287 -38.801  17.831  1.00  0.00     0.170 C 
BRANCH  28  29
ATOM     29  C   UNL     1      23.962 -37.350  17.523  1.00  0.00    -0.013 A 
ATOM     30  C   UNL     1      24.827 -36.641  16.666  1.00  0.00     0.056 A 
ATOM     31  C   UNL     1      22.865 -36.665  18.073  1.00  0.00     0.010 A 
ATOM     32  C   UNL     1      24.573 -35.311  16.349  1.00  0.00     0.157 A 
ATOM     33  C   UNL     1      22.627 -35.321  17.767  1.00  0.00     0.050 A 
ATOM     34  C   UNL     1      23.484 -34.655  16.906  1.00  0.00     0.157 A 
BRANCH  32  35
ATOM     35  O   UNL     1      25.361 -34.621  15.469  1.00  0.00    -0.504 OA
ATOM     36  H   UNL     1      24.860 -34.535  14.625  1.00  0.00     0.293 HD
ENDBRANCH  32  35
BRANCH  34  37
ATOM     37  O   UNL     1      23.242 -33.346  16.602  1.00  0.00    -0.504 OA
ATOM     38  H   UNL     1      23.439 -33.278  15.646  1.00  0.00     0.293 HD
ENDBRANCH  34  37
ENDBRANCH  28  29
BRANCH  28  39
ATOM     39  O   UNL     1      23.539 -39.231  18.972  1.00  0.00    -0.386 OA
ATOM     40  H   UNL     1      22.964 -38.477  19.224  1.00  0.00     0.211 HD
ENDBRANCH  28  39
ENDBRANCH  27  28
ENDBRANCH  26  27
ENDBRANCH   5  26
BRANCH   4  41
ATOM     41  O   UNL     1      28.776 -38.357  18.631  1.00  0.00    -0.385 OA
ATOM     42  H   UNL     1      28.834 -38.983  19.380  1.00  0.00     0.211 HD
ENDBRANCH   4  41
TORSDOF 16
ENDMDL
MODEL 6
REMARK VINA RESULT:    -8.007      4.650      9.133
REMARK INTER + INTRA:         -14.682
REMARK INTER:                 -13.263
REMARK INTRA:                  -1.418
REMARK UNBOUND:                -1.291
REMARK SMILES C[C@@H]1O[C@@H](OC[C@H]2O[C@@H](OCC(O)c3ccc(O)c(O)c3)[C@H](O)[C@@H](O)[C@@H]2O)[C@H](O)[C@H](O)[C@H]1O
REMARK SMILES IDX 7 1 26 2 24 3 22 4 9 5 8 6 6 7 5 8 4 9 2 10 32 11 3 12 30 13
REMARK SMILES IDX 28 14 1 15 33 16 31 18 29 20 27 22 25 24 10 26 11 27 12 28
REMARK SMILES IDX 14 29 21 30 15 31 19 32 16 33 17 34 20 35 18 37 13 39 23 41
REMARK H PARENT 33 17 31 19 29 21 27 23 25 25 20 36 18 38 13 40 23 42
ROOT
ATOM      1  C   UNL     1      28.444 -41.625  16.914  1.00  0.00     0.178 C 
ATOM      2  C   UNL     1      28.508 -42.835  17.857  1.00  0.00     0.177 C 
ATOM      3  C   UNL     1      28.609 -42.360  19.305  1.00  0.00     0.179 C 
ATOM      4  C   UNL     1      27.482 -41.386  19.624  1.00  0.00     0.202 C 
ATOM      5  C   UNL     1      27.483 -40.238  18.597  1.00  0.00     0.282 C 
ATOM      6  O   UNL     1      27.344 -40.761  17.275  1.00  0.00    -0.341 OA
ENDROOT
BRANCH   1   7
ATOM      7  C   UNL     1      28.262 -42.084  15.459  1.00  0.00     0.198 C 
BRANCH   7   8
ATOM      8  O   UNL     1      27.067 -41.496  14.930  1.00  0.00    -0.347 OA
BRANCH   8   9
ATOM      9  C   UNL     1      26.168 -42.459  14.374  1.00  0.00     0.281 C 
ATOM     10  C   UNL     1      25.279 -40.909  12.776  1.00  0.00     0.150 C 
ATOM     11  C   UNL     1      23.890 -40.919  13.436  1.00  0.00     0.174 C 
ATOM     12  O   UNL     1      25.952 -42.151  12.987  1.00  0.00    -0.344 OA
ATOM     13  C   UNL     1      24.040 -41.237  14.931  1.00  0.00     0.179 C 
ATOM     14  C   UNL     1      24.831 -42.528  15.142  1.00  0.00     0.202 C 
ATOM     15  C   UNL     1      25.186 -40.697  11.269  1.00  0.00     0.041 C 
BRANCH  11  16
ATOM     16  O   UNL     1      23.215 -39.654  13.284  1.00  0.00    -0.388 OA
ATOM     17  H   UNL     1      23.191 -39.260  14.178  1.00  0.00     0.211 HD
ENDBRANCH  11  16
BRANCH  13  18
ATOM     18  O   UNL     1      22.739 -41.392  15.525  1.00  0.00    -0.387 OA
ATOM     19  H   UNL     1      22.556 -40.548  15.985  1.00  0.00     0.211 HD
ENDBRANCH  13  18
BRANCH  14  20
ATOM     20  O   UNL     1      24.034 -43.642  14.704  1.00  0.00    -0.385 OA
ATOM     21  H   UNL     1      23.369 -43.764  15.414  1.00  0.00     0.211 HD
ENDBRANCH  14  20
ENDBRANCH   8   9
ENDBRANCH   7   8
ENDBRANCH   1   7
BRANCH   2  22
ATOM     22  O   UNL     1      29.631 -43.666  17.558  1.00  0.00    -0.387 OA
ATOM     23  H   UNL     1      29.462 -44.015  16.659  1.00  0.00     0.211 HD
ENDBRANCH   2  22
BRANCH   3  24
ATOM     24  O   UNL     1      28.550 -43.500  20.176  1.00  0.00    -0.387 OA
ATOM     25  H   UNL     1      28.277 -44.245  19.603  1.00  0.00     0.211 HD
ENDBRANCH   3  24
BRANCH   5  26
ATOM     26  O   UNL     1      26.361 -39.414  18.929  1.00  0.00    -0.347 OA
BRANCH  26  27
ATOM     27  C   UNL     1      25.506 -39.086  17.826  1.00  0.00     0.200 C 
BRANCH  27  28
ATOM     28  C   UNL     1      24.147 -38.450  18.188  1.00  0.00     0.170 C 
BRANCH  28  29
ATOM     29  C   UNL     1      23.850 -37.049  17.683  1.00  0.00    -0.013 A 
ATOM     30  C   UNL     1      24.785 -36.438  16.825  1.00  0.00     0.056 A 
ATOM     31  C   UNL     1      22.710 -36.315  18.053  1.00  0.00     0.010 A 
ATOM     32  C   UNL     1      24.560 -35.158  16.331  1.00  0.00     0.157 A 
ATOM     33  C   UNL     1      22.500 -35.019  17.570  1.00  0.00     0.050 A 
ATOM     34  C   UNL     1      23.427 -34.451  16.711  1.00  0.00     0.157 A 
BRANCH  32  35
ATOM     35  O   UNL     1      25.420 -34.569  15.445  1.00  0.00    -0.504 OA
ATOM     36  H   UNL     1      25.126 -33.637  15.319  1.00  0.00     0.293 HD
ENDBRANCH  32  35
BRANCH  34  37
ATOM     37  O   UNL     1      23.213 -33.190  16.234  1.00  0.00    -0.504 OA
ATOM     38  H   UNL     1      22.968 -32.669  17.024  1.00  0.00     0.293 HD
ENDBRANCH  34  37
ENDBRANCH  28  29
BRANCH  28  39
ATOM     39  O   UNL     1      23.951 -38.504  19.605  1.00  0.00    -0.386 OA
ATOM     40  H   UNL     1      23.008 -38.280  19.760  1.00  0.00     0.211 HD
ENDBRANCH  28  39
ENDBRANCH  27  28
ENDBRANCH  26  27
ENDBRANCH   5  26
BRANCH   4  41
ATOM     41  O   UNL     1      27.657 -40.896  20.963  1.00  0.00    -0.385 OA
ATOM     42  H   UNL     1      26.886 -41.233  21.462  1.00  0.00     0.211 HD
ENDBRANCH   4  41
TORSDOF 16
ENDMDL
MODEL 7
REMARK VINA RESULT:    -7.937      4.848      7.894
REMARK INTER + INTRA:         -14.564
REMARK INTER:                 -13.188
REMARK INTRA:                  -1.376
REMARK UNBOUND:                -1.291
REMARK SMILES C[C@@H]1O[C@@H](OC[C@H]2O[C@@H](OCC(O)c3ccc(O)c(O)c3)[C@H](O)[C@@H](O)[C@@H]2O)[C@H](O)[C@H](O)[C@H]1O
REMARK SMILES IDX 7 1 26 2 24 3 22 4 9 5 8 6 6 7 5 8 4 9 2 10 32 11 3 12 30 13
REMARK SMILES IDX 28 14 1 15 33 16 31 18 29 20 27 22 25 24 10 26 11 27 12 28
REMARK SMILES IDX 14 29 21 30 15 31 19 32 16 33 17 34 20 35 18 37 13 39 23 41
REMARK H PARENT 33 17 31 19 29 21 27 23 25 25 20 36 18 38 13 40 23 42
ROOT
ATOM      1  C   UNL     1      27.474 -40.286  18.847  1.00  0.00     0.178 C 
ATOM      2  C   UNL     1      28.268 -40.974  19.967  1.00  0.00     0.177 C 
ATOM      3  C   UNL     1      28.597 -42.410  19.563  1.00  0.00     0.179 C 
ATOM      4  C   UNL     1      29.292 -42.433  18.207  1.00  0.00     0.202 C 
ATOM      5  C   UNL     1      28.433 -41.682  17.171  1.00  0.00     0.282 C 
ATOM      6  O   UNL     1      28.205 -40.339  17.603  1.00  0.00    -0.341 OA
ENDROOT
BRANCH   1   7
ATOM      7  C   UNL     1      27.203 -38.816  19.205  1.00  0.00     0.198 C 
BRANCH   7   8
ATOM      8  O   UNL     1      25.884 -38.705  19.755  1.00  0.00    -0.347 OA
BRANCH   8   9
ATOM      9  C   UNL     1      25.648 -37.446  20.392  1.00  0.00     0.281 C 
ATOM     10  C   UNL     1      23.281 -37.553  20.030  1.00  0.00     0.150 C 
ATOM     11  C   UNL     1      23.304 -36.353  19.068  1.00  0.00     0.174 C 
ATOM     12  O   UNL     1      24.339 -37.461  20.984  1.00  0.00    -0.344 OA
ATOM     13  C   UNL     1      24.678 -36.274  18.387  1.00  0.00     0.179 C 
ATOM     14  C   UNL     1      25.804 -36.257  19.422  1.00  0.00     0.202 C 
ATOM     15  C   UNL     1      21.973 -37.625  20.811  1.00  0.00     0.041 C 
BRANCH  11  16
ATOM     16  O   UNL     1      22.279 -36.453  18.059  1.00  0.00    -0.388 OA
ATOM     17  H   UNL     1      22.748 -36.414  17.203  1.00  0.00     0.211 HD
ENDBRANCH  11  16
BRANCH  13  18
ATOM     18  O   UNL     1      24.759 -35.073  17.599  1.00  0.00    -0.387 OA
ATOM     19  H   UNL     1      24.387 -34.363  18.160  1.00  0.00     0.211 HD
ENDBRANCH  13  18
BRANCH  14  20
ATOM     20  O   UNL     1      25.775 -35.002  20.124  1.00  0.00    -0.385 OA
ATOM     21  H   UNL     1      26.601 -34.549  19.855  1.00  0.00     0.211 HD
ENDBRANCH  14  20
ENDBRANCH   8   9
ENDBRANCH   7   8
ENDBRANCH   1   7
BRANCH   2  22
ATOM     22  O   UNL     1      27.531 -40.991  21.191  1.00  0.00    -0.387 OA
ATOM     23  H   UNL     1      28.029 -41.591  21.784  1.00  0.00     0.211 HD
ENDBRANCH   2  22
BRANCH   3  24
ATOM     24  O   UNL     1      29.437 -42.998  20.567  1.00  0.00    -0.387 OA
ATOM     25  H   UNL     1      30.105 -43.514  20.071  1.00  0.00     0.211 HD
ENDBRANCH   3  24
BRANCH   5  26
ATOM     26  O   UNL     1      29.186 -41.695  15.955  1.00  0.00    -0.347 OA
BRANCH  26  27
ATOM     27  C   UNL     1      28.484 -42.211  14.817  1.00  0.00     0.200 C 
BRANCH  27  28
ATOM     28  C   UNL     1      27.376 -41.305  14.237  1.00  0.00     0.170 C 
BRANCH  28  29
ATOM     29  C   UNL     1      25.967 -41.861  14.142  1.00  0.00    -0.013 A 
ATOM     30  C   UNL     1      24.966 -41.281  14.947  1.00  0.00     0.056 A 
ATOM     31  C   UNL     1      25.612 -42.946  13.322  1.00  0.00     0.010 A 
ATOM     32  C   UNL     1      23.658 -41.751  14.896  1.00  0.00     0.157 A 
ATOM     33  C   UNL     1      24.299 -43.428  13.291  1.00  0.00     0.050 A 
ATOM     34  C   UNL     1      23.332 -42.825  14.079  1.00  0.00     0.157 A 
BRANCH  32  35
ATOM     35  O   UNL     1      22.656 -41.163  15.618  1.00  0.00    -0.504 OA
ATOM     36  H   UNL     1      23.066 -40.742  16.409  1.00  0.00     0.293 HD
ENDBRANCH  32  35
BRANCH  34  37
ATOM     37  O   UNL     1      22.050 -43.292  14.039  1.00  0.00    -0.504 OA
ATOM     38  H   UNL     1      21.638 -42.944  14.855  1.00  0.00     0.293 HD
ENDBRANCH  34  37
ENDBRANCH  28  29
BRANCH  28  39
ATOM     39  O   UNL     1      27.783 -40.803  12.960  1.00  0.00    -0.386 OA
ATOM     40  H   UNL     1      27.345 -41.370  12.290  1.00  0.00     0.211 HD
ENDBRANCH  28  39
ENDBRANCH  27  28
ENDBRANCH  26  27
ENDBRANCH   5  26
BRANCH   4  41
ATOM     41  O   UNL     1      29.509 -43.800  17.821  1.00  0.00    -0.385 OA
ATOM     42  H   UNL     1      29.876 -43.755  16.915  1.00  0.00     0.211 HD
ENDBRANCH   4  41
TORSDOF 16
ENDMDL
MODEL 8
REMARK VINA RESULT:    -7.909      4.731      8.006
REMARK INTER + INTRA:         -14.518
REMARK INTER:                 -13.058
REMARK INTRA:                  -1.460
REMARK UNBOUND:                -1.291
REMARK SMILES C[C@@H]1O[C@@H](OC[C@H]2O[C@@H](OCC(O)c3ccc(O)c(O)c3)[C@H](O)[C@@H](O)[C@@H]2O)[C@H](O)[C@H](O)[C@H]1O
REMARK SMILES IDX 7 1 26 2 24 3 22 4 9 5 8 6 6 7 5 8 4 9 2 10 32 11 3 12 30 13
REMARK SMILES IDX 28 14 1 15 33 16 31 18 29 20 27 22 25 24 10 26 11 27 12 28
REMARK SMILES IDX 14 29 21 30 15 31 19 32 16 33 17 34 20 35 18 37 13 39 23 41
REMARK H PARENT 33 17 31 19 29 21 27 23 25 25 20 36 18 38 13 40 23 42
ROOT
ATOM      1  C   UNL     1      26.312 -41.671  15.183  1.00  0.00     0.178 C 
ATOM      2  C   UNL     1      26.177 -41.487  13.664  1.00  0.00     0.177 C 
ATOM      3  C   UNL     1      24.703 -41.347  13.288  1.00  0.00     0.179 C 
ATOM      4  C   UNL     1      24.050 -40.240  14.106  1.00  0.00     0.202 C 
ATOM      5  C   UNL     1      24.281 -40.499  15.607  1.00  0.00     0.282 C 
ATOM      6  O   UNL     1      25.681 -40.576  15.882  1.00  0.00    -0.341 OA
ENDROOT
BRANCH   1   7
ATOM      7  C   UNL     1      27.794 -41.734  15.588  1.00  0.00     0.198 C 
BRANCH   7   8
ATOM      8  O   UNL     1      27.883 -42.054  16.982  1.00  0.00    -0.347 OA
BRANCH   8   9
ATOM      9  C   UNL     1      28.885 -41.298  17.666  1.00  0.00     0.281 C 
ATOM     10  C   UNL     1      29.598 -43.174  18.978  1.00  0.00     0.150 C 
ATOM     11  C   UNL     1      29.110 -42.531  20.287  1.00  0.00     0.174 C 
ATOM     12  O   UNL     1      29.966 -42.174  18.026  1.00  0.00    -0.344 OA
ATOM     13  C   UNL     1      27.943 -41.580  19.983  1.00  0.00     0.179 C 
ATOM     14  C   UNL     1      28.328 -40.566  18.905  1.00  0.00     0.202 C 
ATOM     15  C   UNL     1      30.823 -44.054  19.203  1.00  0.00     0.041 C 
BRANCH  11  16
ATOM     16  O   UNL     1      28.679 -43.522  21.242  1.00  0.00    -0.388 OA
ATOM     17  H   UNL     1      29.493 -43.979  21.531  1.00  0.00     0.211 HD
ENDBRANCH  11  16
BRANCH  13  18
ATOM     18  O   UNL     1      27.577 -40.867  21.177  1.00  0.00    -0.387 OA
ATOM     19  H   UNL     1      28.260 -40.175  21.292  1.00  0.00     0.211 HD
ENDBRANCH  13  18
BRANCH  14  20
ATOM     20  O   UNL     1      29.293 -39.649  19.449  1.00  0.00    -0.385 OA
ATOM     21  H   UNL     1      29.645 -39.170  18.670  1.00  0.00     0.211 HD
ENDBRANCH  14  20
ENDBRANCH   8   9
ENDBRANCH   7   8
ENDBRANCH   1   7
BRANCH   2  22
ATOM     22  O   UNL     1      26.736 -42.594  12.956  1.00  0.00    -0.387 OA
ATOM     23  H   UNL     1      27.643 -42.697  13.313  1.00  0.00     0.211 HD
ENDBRANCH   2  22
BRANCH   3  24
ATOM     24  O   UNL     1      24.604 -41.059  11.885  1.00  0.00    -0.387 OA
ATOM     25  H   UNL     1      25.486 -41.274  11.518  1.00  0.00     0.211 HD
ENDBRANCH   3  24
BRANCH   5  26
ATOM     26  O   UNL     1      23.697 -39.386  16.291  1.00  0.00    -0.347 OA
BRANCH  26  27
ATOM     27  C   UNL     1      24.098 -39.243  17.660  1.00  0.00     0.200 C 
BRANCH  27  28
ATOM     28  C   UNL     1      24.867 -37.950  18.009  1.00  0.00     0.170 C 
BRANCH  28  29
ATOM     29  C   UNL     1      24.350 -36.634  17.457  1.00  0.00    -0.013 A 
ATOM     30  C   UNL     1      25.121 -35.971  16.481  1.00  0.00     0.056 A 
ATOM     31  C   UNL     1      23.162 -36.022  17.891  1.00  0.00     0.010 A 
ATOM     32  C   UNL     1      24.692 -34.765  15.941  1.00  0.00     0.157 A 
ATOM     33  C   UNL     1      22.745 -34.797  17.359  1.00  0.00     0.050 A 
ATOM     34  C   UNL     1      23.515 -34.178  16.387  1.00  0.00     0.157 A 
BRANCH  32  35
ATOM     35  O   UNL     1      25.389 -34.135  14.946  1.00  0.00    -0.504 OA
ATOM     36  H   UNL     1      25.182 -33.173  15.000  1.00  0.00     0.293 HD
ENDBRANCH  32  35
BRANCH  34  37
ATOM     37  O   UNL     1      23.100 -32.988  15.863  1.00  0.00    -0.504 OA
ATOM     38  H   UNL     1      23.493 -32.312  16.451  1.00  0.00     0.293 HD
ENDBRANCH  34  37
ENDBRANCH  28  29
BRANCH  28  39
ATOM     39  O   UNL     1      26.249 -38.106  17.672  1.00  0.00    -0.386 OA
ATOM     40  H   UNL     1      26.638 -38.678  18.368  1.00  0.00     0.211 HD
ENDBRANCH  28  39
ENDBRANCH  27  28
ENDBRANCH  26  27
ENDBRANCH   5  26
BRANCH   4  41
ATOM     41  O   UNL     1      22.650 -40.193  13.788  1.00  0.00    -0.385 OA
ATOM     42  H   UNL     1      22.567 -39.511  13.093  1.00  0.00     0.211 HD
ENDBRANCH   4  41
TORSDOF 16
ENDMDL
MODEL 9
REMARK VINA RESULT:    -7.861      4.328      9.601
REMARK INTER + INTRA:         -14.436
REMARK INTER:                 -13.025
REMARK INTRA:                  -1.411
REMARK UNBOUND:                -1.291
REMARK SMILES C[C@@H]1O[C@@H](OC[C@H]2O[C@@H](OCC(O)c3ccc(O)c(O)c3)[C@H](O)[C@@H](O)[C@@H]2O)[C@H](O)[C@H](O)[C@H]1O
REMARK SMILES IDX 7 1 26 2 24 3 22 4 9 5 8 6 6 7 5 8 4 9 2 10 32 11 3 12 30 13
REMARK SMILES IDX 28 14 1 15 33 16 31 18 29 20 27 22 25 24 10 26 11 27 12 28
REMARK SMILES IDX 14 29 21 30 15 31 19 32 16 33 17 34 20 35 18 37 13 39 23 41
REMARK H PARENT 33 17 31 19 29 21 27 23 25 25 20 36 18 38 13 40 23 42
ROOT
ATOM      1  C   UNL     1      25.419 -38.863  16.561  1.00  0.00     0.178 C 
ATOM      2  C   UNL     1      25.736 -39.437  17.950  1.00  0.00     0.177 C 
ATOM      3  C   UNL     1      26.772 -38.559  18.649  1.00  0.00     0.179 C 
ATOM      4  C   UNL     1      26.311 -37.107  18.670  1.00  0.00     0.202 C 
ATOM      5  C   UNL     1      25.981 -36.648  17.237  1.00  0.00     0.282 C 
ATOM      6  O   UNL     1      24.977 -37.492  16.670  1.00  0.00    -0.341 OA
ENDROOT
BRANCH   1   7
ATOM      7  C   UNL     1      24.319 -39.689  15.875  1.00  0.00     0.198 C 
BRANCH   7   8
ATOM      8  O   UNL     1      24.920 -40.816  15.225  1.00  0.00    -0.347 OA
BRANCH   8   9
ATOM      9  C   UNL     1      24.089 -41.980  15.242  1.00  0.00     0.281 C 
ATOM     10  C   UNL     1      25.846 -43.413  14.463  1.00  0.00     0.150 C 
ATOM     11  C   UNL     1      25.128 -43.685  13.131  1.00  0.00     0.174 C 
ATOM     12  O   UNL     1      24.906 -43.133  15.501  1.00  0.00    -0.344 OA
ATOM     13  C   UNL     1      24.234 -42.486  12.781  1.00  0.00     0.179 C 
ATOM     14  C   UNL     1      23.288 -42.150  13.934  1.00  0.00     0.202 C 
ATOM     15  C   UNL     1      26.673 -44.613  14.915  1.00  0.00     0.041 C 
BRANCH  11  16
ATOM     16  O   UNL     1      26.060 -43.914  12.055  1.00  0.00    -0.388 OA
ATOM     17  H   UNL     1      26.145 -43.057  11.594  1.00  0.00     0.211 HD
ENDBRANCH  11  16
BRANCH  13  18
ATOM     18  O   UNL     1      23.449 -42.793  11.614  1.00  0.00    -0.387 OA
ATOM     19  H   UNL     1      23.590 -43.746  11.444  1.00  0.00     0.211 HD
ENDBRANCH  13  18
BRANCH  14  20
ATOM     20  O   UNL     1      22.307 -43.196  14.053  1.00  0.00    -0.385 OA
ATOM     21  H   UNL     1      22.543 -43.837  13.350  1.00  0.00     0.211 HD
ENDBRANCH  14  20
ENDBRANCH   8   9
ENDBRANCH   7   8
ENDBRANCH   1   7
BRANCH   2  22
ATOM     22  O   UNL     1      26.239 -40.771  17.858  1.00  0.00    -0.387 OA
ATOM     23  H   UNL     1      25.749 -41.180  17.115  1.00  0.00     0.211 HD
ENDBRANCH   2  22
BRANCH   3  24
ATOM     24  O   UNL     1      26.968 -39.043  19.987  1.00  0.00    -0.387 OA
ATOM     25  H   UNL     1      26.296 -38.578  20.527  1.00  0.00     0.211 HD
ENDBRANCH   3  24
BRANCH   5  26
ATOM     26  O   UNL     1      25.496 -35.307  17.357  1.00  0.00    -0.347 OA
BRANCH  26  27
ATOM     27  C   UNL     1      24.186 -35.089  16.821  1.00  0.00     0.200 C 
BRANCH  27  28
ATOM     28  C   UNL     1      23.050 -34.923  17.854  1.00  0.00     0.170 C 
BRANCH  28  29
ATOM     29  C   UNL     1      23.351 -35.231  19.310  1.00  0.00    -0.013 A 
ATOM     30  C   UNL     1      22.762 -36.374  19.886  1.00  0.00     0.056 A 
ATOM     31  C   UNL     1      24.157 -34.418  20.126  1.00  0.00     0.010 A 
ATOM     32  C   UNL     1      23.007 -36.703  21.214  1.00  0.00     0.157 A 
ATOM     33  C   UNL     1      24.383 -34.742  21.468  1.00  0.00     0.050 A 
ATOM     34  C   UNL     1      23.806 -35.884  22.001  1.00  0.00     0.157 A 
BRANCH  32  35
ATOM     35  O   UNL     1      22.500 -37.842  21.777  1.00  0.00    -0.504 OA
ATOM     36  H   UNL     1      22.125 -38.391  21.051  1.00  0.00     0.293 HD
ENDBRANCH  32  35
BRANCH  34  37
ATOM     37  O   UNL     1      24.037 -36.202  23.308  1.00  0.00    -0.504 OA
ATOM     38  H   UNL     1      23.228 -36.673  23.591  1.00  0.00     0.293 HD
ENDBRANCH  34  37
ENDBRANCH  28  29
BRANCH  28  39
ATOM     39  O   UNL     1      21.901 -35.664  17.432  1.00  0.00    -0.386 OA
ATOM     40  H   UNL     1      22.183 -36.182  16.647  1.00  0.00     0.211 HD
ENDBRANCH  28  39
ENDBRANCH  27  28
ENDBRANCH  26  27
ENDBRANCH   5  26
BRANCH   4  41
ATOM     41  O   UNL     1      27.345 -36.301  19.258  1.00  0.00    -0.385 OA
ATOM     42  H   UNL     1      28.151 -36.503  18.742  1.00  0.00     0.211 HD
ENDBRANCH   4  41
TORSDOF 16
ENDMDL
