MODEL 1
REMARK VINA RESULT:    -9.541      0.000      0.000
REMARK INTER + INTRA:         -13.048
REMARK INTER:                 -12.329
REMARK INTRA:                  -0.719
REMARK UNBOUND:                -0.719
REMARK SMILES COc1ccccc1-c1noc(C)c1C(=O)N1CCN(c2ccc([N+](=O)[O-])cc2Cl)CC1
REMARK SMILES IDX 15 1 19 2 31 3 18 4 32 5 20 6 17 7 16 8 14 9 9 10 10 11
REMARK SMILES IDX 12 12 11 13 13 14 8 15 6 16 5 17 7 18 4 19 3 20 2 21 1 22
REMARK SMILES IDX 21 23 22 24 29 25 23 26 28 27 24 28 30 29 25 30 26 31 27 32
REMARK H PARENT
ROOT
ATOM      1  C   UNL     1      25.475 -35.370  19.974  1.00  0.00     0.259 C 
ATOM      2  C   UNL     1      24.631 -32.945  22.622  1.00  0.00     0.138 C 
ATOM      3  C   UNL     1      27.051 -33.498  22.673  1.00  0.00     0.138 C 
ATOM      4  C   UNL     1      24.581 -33.374  21.153  1.00  0.00     0.141 C 
ATOM      5  C   UNL     1      27.015 -33.756  21.169  1.00  0.00     0.141 C 
ATOM      6  N   UNL     1      25.982 -32.579  23.080  1.00  0.00    -0.367 N 
ATOM      7  N   UNL     1      25.697 -34.226  20.740  1.00  0.00    -0.335 N 
ATOM      8  O   UNL     1      26.356 -36.124  19.576  1.00  0.00    -0.269 OA
ENDROOT
BRANCH   1   9
ATOM      9  C   UNL     1      24.110 -35.745  19.591  1.00  0.00     0.110 A 
ATOM     10  C   UNL     1      23.408 -35.570  18.384  1.00  0.00     0.130 A 
ATOM     11  N   UNL     1      22.166 -36.058  18.451  1.00  0.00    -0.079 NA
ATOM     12  C   UNL     1      23.205 -36.363  20.411  1.00  0.00     0.147 A 
ATOM     13  O   UNL     1      22.039 -36.561  19.744  1.00  0.00    -0.360 OA
ATOM     14  C   UNL     1      23.249 -36.837  21.800  1.00  0.00     0.092 C 
BRANCH  10  15
ATOM     15  C   UNL     1      23.885 -34.965  17.165  1.00  0.00     0.047 A 
ATOM     16  C   UNL     1      23.718 -33.183  15.544  1.00  0.00     0.001 A 
ATOM     17  C   UNL     1      24.754 -33.751  14.805  1.00  0.00     0.004 A 
ATOM     18  C   UNL     1      23.283 -33.788  16.720  1.00  0.00     0.014 A 
ATOM     19  C   UNL     1      25.358 -34.929  15.243  1.00  0.00     0.047 A 
ATOM     20  C   UNL     1      24.927 -35.539  16.425  1.00  0.00     0.128 A 
BRANCH  20  21
ATOM     21  O   UNL     1      25.547 -36.694  16.824  1.00  0.00    -0.496 OA
ATOM     22  C   UNL     1      24.973 -37.924  16.384  1.00  0.00     0.278 C 
ENDBRANCH  20  21
ENDBRANCH  10  15
ENDBRANCH   1   9
BRANCH   6  23
ATOM     23  C   UNL     1      26.084 -31.931  24.320  1.00  0.00     0.056 A 
ATOM     24  C   UNL     1      25.258 -32.377  25.355  1.00  0.00     0.034 A 
ATOM     25  C   UNL     1      26.960 -30.866  24.553  1.00  0.00     0.071 A 
ATOM     26  C   UNL     1      25.306 -31.771  26.611  1.00  0.00     0.088 A 
ATOM     27  C   UNL     1      27.008 -30.262  25.803  1.00  0.00     0.108 A 
ATOM     28  C   UNL     1      26.184 -30.710  26.826  1.00  0.00     0.271 A 
ATOM     29  Cl  UNL     1      28.036 -30.226  23.369  1.00  0.00    -0.082 Cl
BRANCH  28  30
ATOM     30  N   UNL     1      26.271 -30.066  28.080  1.00  0.00     0.062 N 
ATOM     31  O   UNL     1      27.153 -29.190  28.264  1.00  0.00    -0.258 OA
ATOM     32  O   UNL     1      25.447 -30.400  28.967  1.00  0.00    -0.258 OA
ENDBRANCH  28  30
ENDBRANCH   6  23
TORSDOF 5
ENDMDL
MODEL 2
REMARK VINA RESULT:    -8.643      4.310      8.115
REMARK INTER + INTRA:         -11.889
REMARK INTER:                 -11.888
REMARK INTRA:                  -0.001
REMARK UNBOUND:                -0.719
REMARK SMILES COc1ccccc1-c1noc(C)c1C(=O)N1CCN(c2ccc([N+](=O)[O-])cc2Cl)CC1
REMARK SMILES IDX 15 1 19 2 31 3 18 4 32 5 20 6 17 7 16 8 14 9 9 10 10 11
REMARK SMILES IDX 12 12 11 13 13 14 8 15 6 16 5 17 7 18 4 19 3 20 2 21 1 22
REMARK SMILES IDX 21 23 22 24 29 25 23 26 28 27 24 28 30 29 25 30 26 31 27 32
REMARK H PARENT
ROOT
ATOM      1  C   UNL     1      23.060 -37.852  20.082  1.00  0.00     0.259 C 
ATOM      2  C   UNL     1      23.876 -34.818  18.148  1.00  0.00     0.138 C 
ATOM      3  C   UNL     1      24.362 -36.863  16.826  1.00  0.00     0.138 C 
ATOM      4  C   UNL     1      22.889 -35.623  18.998  1.00  0.00     0.141 C 
ATOM      5  C   UNL     1      23.251 -37.599  17.571  1.00  0.00     0.141 C 
ATOM      6  N   UNL     1      24.132 -35.414  16.826  1.00  0.00    -0.367 N 
ATOM      7  N   UNL     1      23.078 -37.072  18.926  1.00  0.00    -0.335 N 
ATOM      8  O   UNL     1      23.196 -39.070  20.104  1.00  0.00    -0.269 OA
ENDROOT
BRANCH   1   9
ATOM      9  C   UNL     1      22.871 -37.220  21.392  1.00  0.00     0.110 A 
ATOM     10  C   UNL     1      23.598 -36.204  22.041  1.00  0.00     0.130 A 
ATOM     11  N   UNL     1      23.091 -35.915  23.243  1.00  0.00    -0.079 NA
ATOM     12  C   UNL     1      21.890 -37.546  22.289  1.00  0.00     0.147 A 
ATOM     13  O   UNL     1      22.004 -36.772  23.399  1.00  0.00    -0.360 OA
ATOM     14  C   UNL     1      20.787 -38.515  22.281  1.00  0.00     0.092 C 
BRANCH  10  15
ATOM     15  C   UNL     1      24.750 -35.490  21.549  1.00  0.00     0.047 A 
ATOM     16  C   UNL     1      25.860 -33.379  21.166  1.00  0.00     0.001 A 
ATOM     17  C   UNL     1      26.946 -34.047  20.603  1.00  0.00     0.004 A 
ATOM     18  C   UNL     1      24.764 -34.098  21.637  1.00  0.00     0.014 A 
ATOM     19  C   UNL     1      26.937 -35.438  20.509  1.00  0.00     0.047 A 
ATOM     20  C   UNL     1      25.840 -36.164  20.983  1.00  0.00     0.128 A 
BRANCH  20  21
ATOM     21  O   UNL     1      25.869 -37.530  20.876  1.00  0.00    -0.496 OA
ATOM     22  C   UNL     1      26.750 -38.085  19.901  1.00  0.00     0.278 C 
ENDBRANCH  20  21
ENDBRANCH  10  15
ENDBRANCH   1   9
BRANCH   6  23
ATOM     23  C   UNL     1      24.811 -34.623  15.888  1.00  0.00     0.056 A 
ATOM     24  C   UNL     1      26.116 -34.994  15.549  1.00  0.00     0.034 A 
ATOM     25  C   UNL     1      24.247 -33.489  15.295  1.00  0.00     0.071 A 
ATOM     26  C   UNL     1      26.849 -34.247  14.627  1.00  0.00     0.088 A 
ATOM     27  C   UNL     1      24.976 -32.744  14.377  1.00  0.00     0.108 A 
ATOM     28  C   UNL     1      26.270 -33.119  14.047  1.00  0.00     0.271 A 
ATOM     29  Cl  UNL     1      22.650 -32.929  15.617  1.00  0.00    -0.082 Cl
BRANCH  28  30
ATOM     30  N   UNL     1      26.971 -32.331  13.107  1.00  0.00     0.062 N 
ATOM     31  O   UNL     1      26.378 -31.384  12.532  1.00  0.00    -0.258 OA
ATOM     32  O   UNL     1      28.175 -32.615  12.886  1.00  0.00    -0.258 OA
ENDBRANCH  28  30
ENDBRANCH   6  23
TORSDOF 5
ENDMDL
MODEL 3
REMARK VINA RESULT:    -8.555      5.178     11.593
REMARK INTER + INTRA:         -11.774
REMARK INTER:                 -10.783
REMARK INTRA:                  -0.991
REMARK UNBOUND:                -0.719
REMARK SMILES COc1ccccc1-c1noc(C)c1C(=O)N1CCN(c2ccc([N+](=O)[O-])cc2Cl)CC1
REMARK SMILES IDX 15 1 19 2 31 3 18 4 32 5 20 6 17 7 16 8 14 9 9 10 10 11
REMARK SMILES IDX 12 12 11 13 13 14 8 15 6 16 5 17 7 18 4 19 3 20 2 21 1 22
REMARK SMILES IDX 21 23 22 24 29 25 23 26 28 27 24 28 30 29 25 30 26 31 27 32
REMARK H PARENT
ROOT
ATOM      1  C   UNL     1      25.728 -37.375  18.152  1.00  0.00     0.259 C 
ATOM      2  C   UNL     1      24.128 -39.520  15.613  1.00  0.00     0.138 C 
ATOM      3  C   UNL     1      26.260 -40.523  16.397  1.00  0.00     0.138 C 
ATOM      4  C   UNL     1      24.044 -38.721  16.917  1.00  0.00     0.141 C 
ATOM      5  C   UNL     1      26.067 -39.851  17.754  1.00  0.00     0.141 C 
ATOM      6  N   UNL     1      24.976 -40.720  15.715  1.00  0.00    -0.367 N 
ATOM      7  N   UNL     1      25.317 -38.601  17.628  1.00  0.00    -0.335 N 
ATOM      8  O   UNL     1      26.771 -37.196  18.772  1.00  0.00    -0.269 OA
ENDROOT
BRANCH   1   9
ATOM      9  C   UNL     1      24.893 -36.183  17.974  1.00  0.00     0.110 A 
ATOM     10  C   UNL     1      23.856 -35.655  18.767  1.00  0.00     0.130 A 
ATOM     11  N   UNL     1      23.343 -34.538  18.242  1.00  0.00    -0.079 NA
ATOM     12  C   UNL     1      24.969 -35.319  16.915  1.00  0.00     0.147 A 
ATOM     13  O   UNL     1      24.053 -34.327  17.062  1.00  0.00    -0.360 OA
ATOM     14  C   UNL     1      25.814 -35.253  15.716  1.00  0.00     0.092 C 
BRANCH  10  15
ATOM     15  C   UNL     1      23.348 -36.170  20.014  1.00  0.00     0.047 A 
ATOM     16  C   UNL     1      21.789 -37.609  21.169  1.00  0.00     0.001 A 
ATOM     17  C   UNL     1      22.311 -37.198  22.394  1.00  0.00     0.004 A 
ATOM     18  C   UNL     1      22.305 -37.096  19.981  1.00  0.00     0.014 A 
ATOM     19  C   UNL     1      23.351 -36.271  22.434  1.00  0.00     0.047 A 
ATOM     20  C   UNL     1      23.874 -35.755  21.244  1.00  0.00     0.128 A 
BRANCH  20  21
ATOM     21  O   UNL     1      24.899 -34.848  21.323  1.00  0.00    -0.496 OA
ATOM     22  C   UNL     1      24.577 -33.549  21.819  1.00  0.00     0.278 C 
ENDBRANCH  20  21
ENDBRANCH  10  15
ENDBRANCH   1   9
BRANCH   6  23
ATOM     23  C   UNL     1      24.905 -41.645  14.664  1.00  0.00     0.056 A 
ATOM     24  C   UNL     1      24.380 -41.204  13.445  1.00  0.00     0.034 A 
ATOM     25  C   UNL     1      25.322 -42.975  14.787  1.00  0.00     0.071 A 
ATOM     26  C   UNL     1      24.276 -42.075  12.361  1.00  0.00     0.088 A 
ATOM     27  C   UNL     1      25.218 -43.843  13.708  1.00  0.00     0.108 A 
ATOM     28  C   UNL     1      24.696 -43.397  12.503  1.00  0.00     0.271 A 
ATOM     29  Cl  UNL     1      25.992 -43.643  16.227  1.00  0.00    -0.082 Cl
BRANCH  28  30
ATOM     30  N   UNL     1      24.613 -44.316  11.434  1.00  0.00     0.062 N 
ATOM     31  O   UNL     1      25.668 -44.710  10.875  1.00  0.00    -0.258 OA
ATOM     32  O   UNL     1      23.471 -44.709  11.087  1.00  0.00    -0.258 OA
ENDBRANCH  28  30
ENDBRANCH   6  23
TORSDOF 5
ENDMDL
MODEL 4
REMARK VINA RESULT:    -8.349      1.203      1.831
REMARK INTER + INTRA:         -11.508
REMARK INTER:                 -11.061
REMARK INTRA:                  -0.447
REMARK UNBOUND:                -0.719
REMARK SMILES COc1ccccc1-c1noc(C)c1C(=O)N1CCN(c2ccc([N+](=O)[O-])cc2Cl)CC1
REMARK SMILES IDX 15 1 19 2 31 3 18 4 32 5 20 6 17 7 16 8 14 9 9 10 10 11
REMARK SMILES IDX 12 12 11 13 13 14 8 15 6 16 5 17 7 18 4 19 3 20 2 21 1 22
REMARK SMILES IDX 21 23 22 24 29 25 23 26 28 27 24 28 30 29 25 30 26 31 27 32
REMARK H PARENT
ROOT
ATOM      1  C   UNL     1      25.416 -35.667  19.442  1.00  0.00     0.259 C 
ATOM      2  C   UNL     1      24.761 -32.981  21.884  1.00  0.00     0.138 C 
ATOM      3  C   UNL     1      26.967 -34.039  22.307  1.00  0.00     0.138 C 
ATOM      4  C   UNL     1      24.826 -33.467  20.433  1.00  0.00     0.141 C 
ATOM      5  C   UNL     1      27.089 -34.361  20.820  1.00  0.00     0.141 C 
ATOM      6  N   UNL     1      26.081 -32.891  22.531  1.00  0.00    -0.367 N 
ATOM      7  N   UNL     1      25.774 -34.558  20.208  1.00  0.00    -0.335 N 
ATOM      8  O   UNL     1      26.156 -36.613  19.195  1.00  0.00    -0.269 OA
ENDROOT
BRANCH   1   9
ATOM      9  C   UNL     1      24.069 -35.759  18.867  1.00  0.00     0.110 A 
ATOM     10  C   UNL     1      23.583 -35.410  17.593  1.00  0.00     0.130 A 
ATOM     11  N   UNL     1      22.274 -35.653  17.472  1.00  0.00    -0.079 NA
ATOM     12  C   UNL     1      22.962 -36.219  19.526  1.00  0.00     0.147 A 
ATOM     13  O   UNL     1      21.881 -36.167  18.706  1.00  0.00    -0.360 OA
ATOM     14  C   UNL     1      22.728 -36.742  20.879  1.00  0.00     0.092 C 
BRANCH  10  15
ATOM     15  C   UNL     1      24.326 -34.866  16.483  1.00  0.00     0.047 A 
ATOM     16  C   UNL     1      26.318 -34.903  15.118  1.00  0.00     0.001 A 
ATOM     17  C   UNL     1      25.818 -33.850  14.353  1.00  0.00     0.004 A 
ATOM     18  C   UNL     1      25.574 -35.409  16.181  1.00  0.00     0.014 A 
ATOM     19  C   UNL     1      24.572 -33.301  14.651  1.00  0.00     0.047 A 
ATOM     20  C   UNL     1      23.821 -33.808  15.716  1.00  0.00     0.128 A 
BRANCH  20  21
ATOM     21  O   UNL     1      22.599 -33.244  15.976  1.00  0.00    -0.496 OA
ATOM     22  C   UNL     1      21.868 -32.739  14.859  1.00  0.00     0.278 C 
ENDBRANCH  20  21
ENDBRANCH  10  15
ENDBRANCH   1   9
BRANCH   6  23
ATOM     23  C   UNL     1      26.147 -32.216  23.758  1.00  0.00     0.056 A 
ATOM     24  C   UNL     1      25.301 -32.648  24.784  1.00  0.00     0.034 A 
ATOM     25  C   UNL     1      27.007 -31.137  23.990  1.00  0.00     0.071 A 
ATOM     26  C   UNL     1      25.313 -32.016  26.027  1.00  0.00     0.088 A 
ATOM     27  C   UNL     1      27.019 -30.507  25.227  1.00  0.00     0.108 A 
ATOM     28  C   UNL     1      26.176 -30.942  26.239  1.00  0.00     0.271 A 
ATOM     29  Cl  UNL     1      28.104 -30.512  22.818  1.00  0.00    -0.082 Cl
BRANCH  28  30
ATOM     30  N   UNL     1      26.226 -30.270  27.481  1.00  0.00     0.062 N 
ATOM     31  O   UNL     1      25.451 -29.304  27.692  1.00  0.00    -0.258 OA
ATOM     32  O   UNL     1      27.054 -30.678  28.334  1.00  0.00    -0.258 OA
ENDBRANCH  28  30
ENDBRANCH   6  23
TORSDOF 5
ENDMDL
MODEL 5
REMARK VINA RESULT:    -8.137      6.921     12.684
REMARK INTER + INTRA:         -11.234
REMARK INTER:                  -9.878
REMARK INTRA:                  -1.357
REMARK UNBOUND:                -0.719
REMARK SMILES COc1ccccc1-c1noc(C)c1C(=O)N1CCN(c2ccc([N+](=O)[O-])cc2Cl)CC1
REMARK SMILES IDX 15 1 19 2 31 3 18 4 32 5 20 6 17 7 16 8 14 9 9 10 10 11
REMARK SMILES IDX 12 12 11 13 13 14 8 15 6 16 5 17 7 18 4 19 3 20 2 21 1 22
REMARK SMILES IDX 21 23 22 24 29 25 23 26 28 27 24 28 30 29 25 30 26 31 27 32
REMARK H PARENT
ROOT
ATOM      1  C   UNL     1      29.240 -41.014  17.637  1.00  0.00     0.259 C 
ATOM      2  C   UNL     1      26.403 -42.678  15.967  1.00  0.00     0.138 C 
ATOM      3  C   UNL     1      28.027 -41.818  14.298  1.00  0.00     0.138 C 
ATOM      4  C   UNL     1      27.517 -42.693  17.018  1.00  0.00     0.141 C 
ATOM      5  C   UNL     1      29.155 -42.004  15.310  1.00  0.00     0.141 C 
ATOM      6  N   UNL     1      26.903 -42.717  14.583  1.00  0.00    -0.367 N 
ATOM      7  N   UNL     1      28.668 -41.854  16.683  1.00  0.00    -0.335 N 
ATOM      8  O   UNL     1      30.213 -40.293  17.440  1.00  0.00    -0.269 OA
ENDROOT
BRANCH   1   9
ATOM      9  C   UNL     1      28.676 -40.947  18.990  1.00  0.00     0.110 A 
ATOM     10  C   UNL     1      27.665 -40.130  19.529  1.00  0.00     0.130 A 
ATOM     11  N   UNL     1      27.451 -40.387  20.823  1.00  0.00    -0.079 NA
ATOM     12  C   UNL     1      29.080 -41.713  20.049  1.00  0.00     0.147 A 
ATOM     13  O   UNL     1      28.354 -41.395  21.152  1.00  0.00    -0.360 OA
ATOM     14  C   UNL     1      30.088 -42.768  20.216  1.00  0.00     0.092 C 
BRANCH  10  15
ATOM     15  C   UNL     1      26.886 -39.123  18.851  1.00  0.00     0.047 A 
ATOM     16  C   UNL     1      25.040 -38.580  17.392  1.00  0.00     0.001 A 
ATOM     17  C   UNL     1      25.347 -37.224  17.502  1.00  0.00     0.004 A 
ATOM     18  C   UNL     1      25.808 -39.527  18.064  1.00  0.00     0.014 A 
ATOM     19  C   UNL     1      26.425 -36.814  18.284  1.00  0.00     0.047 A 
ATOM     20  C   UNL     1      27.198 -37.762  18.962  1.00  0.00     0.128 A 
BRANCH  20  21
ATOM     21  O   UNL     1      28.248 -37.320  19.725  1.00  0.00    -0.496 OA
ATOM     22  C   UNL     1      28.879 -36.108  19.316  1.00  0.00     0.278 C 
ENDBRANCH  20  21
ENDBRANCH  10  15
ENDBRANCH   1   9
BRANCH   6  23
ATOM     23  C   UNL     1      25.966 -42.967  13.570  1.00  0.00     0.056 A 
ATOM     24  C   UNL     1      26.034 -44.199  12.913  1.00  0.00     0.034 A 
ATOM     25  C   UNL     1      24.987 -42.043  13.191  1.00  0.00     0.071 A 
ATOM     26  C   UNL     1      25.135 -44.509  11.892  1.00  0.00     0.088 A 
ATOM     27  C   UNL     1      24.091 -42.351  12.175  1.00  0.00     0.108 A 
ATOM     28  C   UNL     1      24.166 -43.576  11.528  1.00  0.00     0.271 A 
ATOM     29  Cl  UNL     1      24.788 -40.496  13.924  1.00  0.00    -0.082 Cl
BRANCH  28  30
ATOM     30  N   UNL     1      23.232 -43.843  10.502  1.00  0.00     0.062 N 
ATOM     31  O   UNL     1      22.133 -43.235  10.495  1.00  0.00    -0.258 OA
ATOM     32  O   UNL     1      23.549 -44.688   9.627  1.00  0.00    -0.258 OA
ENDBRANCH  28  30
ENDBRANCH   6  23
TORSDOF 5
ENDMDL
MODEL 6
REMARK VINA RESULT:    -8.031      3.476      9.085
REMARK INTER + INTRA:         -11.097
REMARK INTER:                  -9.890
REMARK INTRA:                  -1.207
REMARK UNBOUND:                -0.719
REMARK SMILES COc1ccccc1-c1noc(C)c1C(=O)N1CCN(c2ccc([N+](=O)[O-])cc2Cl)CC1
REMARK SMILES IDX 15 1 19 2 31 3 18 4 32 5 20 6 17 7 16 8 14 9 9 10 10 11
REMARK SMILES IDX 12 12 11 13 13 14 8 15 6 16 5 17 7 18 4 19 3 20 2 21 1 22
REMARK SMILES IDX 21 23 22 24 29 25 23 26 28 27 24 28 30 29 25 30 26 31 27 32
REMARK H PARENT
ROOT
ATOM      1  C   UNL     1      27.683 -30.453  23.497  1.00  0.00     0.259 C 
ATOM      2  C   UNL     1      26.414 -33.917  23.462  1.00  0.00     0.138 C 
ATOM      3  C   UNL     1      25.415 -32.593  21.613  1.00  0.00     0.138 C 
ATOM      4  C   UNL     1      27.589 -32.936  23.506  1.00  0.00     0.141 C 
ATOM      5  C   UNL     1      26.675 -31.732  21.560  1.00  0.00     0.141 C 
ATOM      6  N   UNL     1      25.701 -33.919  22.173  1.00  0.00    -0.367 N 
ATOM      7  N   UNL     1      27.317 -31.646  22.873  1.00  0.00    -0.335 N 
ATOM      8  O   UNL     1      27.505 -29.335  23.026  1.00  0.00    -0.269 OA
ENDROOT
BRANCH   1   9
ATOM      9  C   UNL     1      28.331 -30.482  24.813  1.00  0.00     0.110 A 
ATOM     10  C   UNL     1      29.667 -30.729  25.180  1.00  0.00     0.130 A 
ATOM     11  N   UNL     1      29.844 -30.663  26.503  1.00  0.00    -0.079 NA
ATOM     12  C   UNL     1      27.695 -30.275  26.007  1.00  0.00     0.147 A 
ATOM     13  O   UNL     1      28.586 -30.375  27.027  1.00  0.00    -0.360 OA
ATOM     14  C   UNL     1      26.308 -29.971  26.381  1.00  0.00     0.092 C 
BRANCH  10  15
ATOM     15  C   UNL     1      30.783 -31.012  24.312  1.00  0.00     0.047 A 
ATOM     16  C   UNL     1      32.323 -32.630  23.393  1.00  0.00     0.001 A 
ATOM     17  C   UNL     1      32.948 -31.624  22.658  1.00  0.00     0.004 A 
ATOM     18  C   UNL     1      31.244 -32.325  24.219  1.00  0.00     0.014 A 
ATOM     19  C   UNL     1      32.495 -30.310  22.749  1.00  0.00     0.047 A 
ATOM     20  C   UNL     1      31.410 -29.999  23.575  1.00  0.00     0.128 A 
BRANCH  20  21
ATOM     21  O   UNL     1      30.991 -28.696  23.635  1.00  0.00    -0.496 OA
ATOM     22  C   UNL     1      31.803 -27.788  24.377  1.00  0.00     0.278 C 
ENDBRANCH  20  21
ENDBRANCH  10  15
ENDBRANCH   1   9
BRANCH   6  23
ATOM     23  C   UNL     1      24.786 -34.958  21.949  1.00  0.00     0.056 A 
ATOM     24  C   UNL     1      23.940 -35.316  23.004  1.00  0.00     0.034 A 
ATOM     25  C   UNL     1      24.694 -35.646  20.735  1.00  0.00     0.071 A 
ATOM     26  C   UNL     1      23.011 -36.345  22.849  1.00  0.00     0.088 A 
ATOM     27  C   UNL     1      23.770 -36.671  20.581  1.00  0.00     0.108 A 
ATOM     28  C   UNL     1      22.935 -37.020  21.632  1.00  0.00     0.271 A 
ATOM     29  Cl  UNL     1      25.669 -35.299  19.357  1.00  0.00    -0.082 Cl
BRANCH  28  30
ATOM     30  N   UNL     1      22.010 -38.067  21.426  1.00  0.00     0.062 N 
ATOM     31  O   UNL     1      22.362 -39.083  20.775  1.00  0.00    -0.258 OA
ATOM     32  O   UNL     1      20.859 -37.936  21.913  1.00  0.00    -0.258 OA
ENDBRANCH  28  30
ENDBRANCH   6  23
TORSDOF 5
ENDMDL
MODEL 7
REMARK VINA RESULT:    -8.004      3.450      9.294
REMARK INTER + INTRA:         -11.063
REMARK INTER:                  -9.972
REMARK INTRA:                  -1.091
REMARK UNBOUND:                -0.719
REMARK SMILES COc1ccccc1-c1noc(C)c1C(=O)N1CCN(c2ccc([N+](=O)[O-])cc2Cl)CC1
REMARK SMILES IDX 15 1 19 2 31 3 18 4 32 5 20 6 17 7 16 8 14 9 9 10 10 11
REMARK SMILES IDX 12 12 11 13 13 14 8 15 6 16 5 17 7 18 4 19 3 20 2 21 1 22
REMARK SMILES IDX 21 23 22 24 29 25 23 26 28 27 24 28 30 29 25 30 26 31 27 32
REMARK H PARENT
ROOT
ATOM      1  C   UNL     1      27.469 -30.061  24.083  1.00  0.00     0.259 C 
ATOM      2  C   UNL     1      26.048 -33.462  24.233  1.00  0.00     0.138 C 
ATOM      3  C   UNL     1      25.761 -32.486  21.969  1.00  0.00     0.138 C 
ATOM      4  C   UNL     1      27.214 -32.500  24.481  1.00  0.00     0.141 C 
ATOM      5  C   UNL     1      27.029 -31.660  22.172  1.00  0.00     0.141 C 
ATOM      6  N   UNL     1      25.771 -33.691  22.805  1.00  0.00    -0.367 N 
ATOM      7  N   UNL     1      27.236 -31.343  23.586  1.00  0.00    -0.335 N 
ATOM      8  O   UNL     1      27.519 -29.045  23.398  1.00  0.00    -0.269 OA
ENDROOT
BRANCH   1   9
ATOM      9  C   UNL     1      27.673 -29.856  25.521  1.00  0.00     0.110 A 
ATOM     10  C   UNL     1      26.817 -29.341  26.512  1.00  0.00     0.130 A 
ATOM     11  N   UNL     1      27.398 -29.319  27.715  1.00  0.00    -0.079 NA
ATOM     12  C   UNL     1      28.829 -30.135  26.199  1.00  0.00     0.147 A 
ATOM     13  O   UNL     1      28.680 -29.824  27.512  1.00  0.00    -0.360 OA
ATOM     14  C   UNL     1      30.132 -30.686  25.804  1.00  0.00     0.092 C 
BRANCH  10  15
ATOM     15  C   UNL     1      25.459 -28.882  26.354  1.00  0.00     0.047 A 
ATOM     16  C   UNL     1      23.939 -27.124  25.696  1.00  0.00     0.001 A 
ATOM     17  C   UNL     1      22.853 -27.930  26.035  1.00  0.00     0.004 A 
ATOM     18  C   UNL     1      25.239 -27.598  25.856  1.00  0.00     0.014 A 
ATOM     19  C   UNL     1      23.066 -29.213  26.536  1.00  0.00     0.047 A 
ATOM     20  C   UNL     1      24.369 -29.694  26.695  1.00  0.00     0.128 A 
BRANCH  20  21
ATOM     21  O   UNL     1      24.539 -30.962  27.187  1.00  0.00    -0.496 OA
ATOM     22  C   UNL     1      24.310 -31.152  28.583  1.00  0.00     0.278 C 
ENDBRANCH  20  21
ENDBRANCH  10  15
ENDBRANCH   1   9
BRANCH   6  23
ATOM     23  C   UNL     1      24.904 -34.745  22.482  1.00  0.00     0.056 A 
ATOM     24  C   UNL     1      23.880 -35.043  23.386  1.00  0.00     0.034 A 
ATOM     25  C   UNL     1      25.028 -35.504  21.314  1.00  0.00     0.071 A 
ATOM     26  C   UNL     1      22.987 -36.083  23.128  1.00  0.00     0.088 A 
ATOM     27  C   UNL     1      24.140 -36.540  21.057  1.00  0.00     0.108 A 
ATOM     28  C   UNL     1      23.127 -36.830  21.959  1.00  0.00     0.271 A 
ATOM     29  Cl  UNL     1      26.238 -35.237  20.116  1.00  0.00    -0.082 Cl
BRANCH  28  30
ATOM     30  N   UNL     1      22.247 -37.891  21.652  1.00  0.00     0.062 N 
ATOM     31  O   UNL     1      21.141 -37.967  22.245  1.00  0.00    -0.258 OA
ATOM     32  O   UNL     1      22.612 -38.723  20.784  1.00  0.00    -0.258 OA
ENDBRANCH  28  30
ENDBRANCH   6  23
TORSDOF 5
ENDMDL
MODEL 8
REMARK VINA RESULT:    -7.912      2.288      3.814
REMARK INTER + INTRA:         -10.943
REMARK INTER:                 -10.078
REMARK INTRA:                  -0.866
REMARK UNBOUND:                -0.719
REMARK SMILES COc1ccccc1-c1noc(C)c1C(=O)N1CCN(c2ccc([N+](=O)[O-])cc2Cl)CC1
REMARK SMILES IDX 15 1 19 2 31 3 18 4 32 5 20 6 17 7 16 8 14 9 9 10 10 11
REMARK SMILES IDX 12 12 11 13 13 14 8 15 6 16 5 17 7 18 4 19 3 20 2 21 1 22
REMARK SMILES IDX 21 23 22 24 29 25 23 26 28 27 24 28 30 29 25 30 26 31 27 32
REMARK H PARENT
ROOT
ATOM      1  C   UNL     1      23.919 -36.622  19.655  1.00  0.00     0.259 C 
ATOM      2  C   UNL     1      25.730 -34.106  21.655  1.00  0.00     0.138 C 
ATOM      3  C   UNL     1      23.778 -34.990  22.909  1.00  0.00     0.138 C 
ATOM      4  C   UNL     1      25.738 -35.379  20.804  1.00  0.00     0.141 C 
ATOM      5  C   UNL     1      23.912 -36.317  22.167  1.00  0.00     0.141 C 
ATOM      6  N   UNL     1      25.058 -34.274  22.954  1.00  0.00    -0.367 N 
ATOM      7  N   UNL     1      24.480 -36.126  20.831  1.00  0.00    -0.335 N 
ATOM      8  O   UNL     1      22.879 -37.268  19.596  1.00  0.00    -0.269 OA
ENDROOT
BRANCH   1   9
ATOM      9  C   UNL     1      24.578 -36.378  18.367  1.00  0.00     0.110 A 
ATOM     10  C   UNL     1      25.608 -37.077  17.710  1.00  0.00     0.130 A 
ATOM     11  N   UNL     1      25.927 -36.517  16.540  1.00  0.00    -0.079 NA
ATOM     12  C   UNL     1      24.296 -35.338  17.523  1.00  0.00     0.147 A 
ATOM     13  O   UNL     1      25.090 -35.409  16.424  1.00  0.00    -0.360 OA
ATOM     14  C   UNL     1      23.344 -34.222  17.568  1.00  0.00     0.092 C 
BRANCH  10  15
ATOM     15  C   UNL     1      26.290 -38.268  18.154  1.00  0.00     0.047 A 
ATOM     16  C   UNL     1      27.923 -39.288  19.611  1.00  0.00     0.001 A 
ATOM     17  C   UNL     1      27.653 -40.535  19.049  1.00  0.00     0.004 A 
ATOM     18  C   UNL     1      27.244 -38.157  19.164  1.00  0.00     0.014 A 
ATOM     19  C   UNL     1      26.703 -40.652  18.036  1.00  0.00     0.047 A 
ATOM     20  C   UNL     1      26.016 -39.519  17.586  1.00  0.00     0.128 A 
BRANCH  20  21
ATOM     21  O   UNL     1      25.086 -39.675  16.592  1.00  0.00    -0.496 OA
ATOM     22  C   UNL     1      25.549 -40.204  15.350  1.00  0.00     0.278 C 
ENDBRANCH  20  21
ENDBRANCH  10  15
ENDBRANCH   1   9
BRANCH   6  23
ATOM     23  C   UNL     1      25.227 -33.252  23.899  1.00  0.00     0.056 A 
ATOM     24  C   UNL     1      24.076 -32.677  24.446  1.00  0.00     0.034 A 
ATOM     25  C   UNL     1      26.482 -32.786  24.303  1.00  0.00     0.071 A 
ATOM     26  C   UNL     1      24.174 -31.652  25.387  1.00  0.00     0.088 A 
ATOM     27  C   UNL     1      26.581 -31.765  25.239  1.00  0.00     0.108 A 
ATOM     28  C   UNL     1      25.434 -31.199  25.776  1.00  0.00     0.271 A 
ATOM     29  Cl  UNL     1      27.976 -33.412  23.714  1.00  0.00    -0.082 Cl
BRANCH  28  30
ATOM     30  N   UNL     1      25.585 -30.165  26.727  1.00  0.00     0.062 N 
ATOM     31  O   UNL     1      26.691 -30.016  27.304  1.00  0.00    -0.258 OA
ATOM     32  O   UNL     1      24.594 -29.428  26.952  1.00  0.00    -0.258 OA
ENDBRANCH  28  30
ENDBRANCH   6  23
TORSDOF 5
ENDMDL
MODEL 9
REMARK VINA RESULT:    -7.823      4.093     10.311
REMARK INTER + INTRA:         -10.828
REMARK INTER:                 -10.610
REMARK INTRA:                  -0.218
REMARK UNBOUND:                -0.719
REMARK SMILES COc1ccccc1-c1noc(C)c1C(=O)N1CCN(c2ccc([N+](=O)[O-])cc2Cl)CC1
REMARK SMILES IDX 15 1 19 2 31 3 18 4 32 5 20 6 17 7 16 8 14 9 9 10 10 11
REMARK SMILES IDX 12 12 11 13 13 14 8 15 6 16 5 17 7 18 4 19 3 20 2 21 1 22
REMARK SMILES IDX 21 23 22 24 29 25 23 26 28 27 24 28 30 29 25 30 26 31 27 32
REMARK H PARENT
ROOT
ATOM      1  C   UNL     1      24.235 -35.453  19.723  1.00  0.00     0.259 C 
ATOM      2  C   UNL     1      24.802 -38.909  18.564  1.00  0.00     0.138 C 
ATOM      3  C   UNL     1      24.865 -37.319  16.658  1.00  0.00     0.138 C 
ATOM      4  C   UNL     1      25.141 -37.757  19.514  1.00  0.00     0.141 C 
ATOM      5  C   UNL     1      25.369 -36.226  17.597  1.00  0.00     0.141 C 
ATOM      6  N   UNL     1      25.198 -38.653  17.169  1.00  0.00    -0.367 N 
ATOM      7  N   UNL     1      24.879 -36.428  18.961  1.00  0.00    -0.335 N 
ATOM      8  O   UNL     1      23.993 -34.314  19.338  1.00  0.00    -0.269 OA
ENDROOT
BRANCH   1   9
ATOM      9  C   UNL     1      23.792 -35.760  21.086  1.00  0.00     0.110 A 
ATOM     10  C   UNL     1      24.252 -35.297  22.333  1.00  0.00     0.130 A 
ATOM     11  N   UNL     1      23.570 -35.833  23.350  1.00  0.00    -0.079 NA
ATOM     12  C   UNL     1      22.787 -36.632  21.410  1.00  0.00     0.147 A 
ATOM     13  O   UNL     1      22.639 -36.684  22.759  1.00  0.00    -0.360 OA
ATOM     14  C   UNL     1      21.878 -37.473  20.621  1.00  0.00     0.092 C 
BRANCH  10  15
ATOM     15  C   UNL     1      25.311 -34.352  22.589  1.00  0.00     0.047 A 
ATOM     16  C   UNL     1      27.562 -33.605  22.136  1.00  0.00     0.001 A 
ATOM     17  C   UNL     1      27.403 -32.561  23.047  1.00  0.00     0.004 A 
ATOM     18  C   UNL     1      26.519 -34.498  21.908  1.00  0.00     0.014 A 
ATOM     19  C   UNL     1      26.199 -32.411  23.733  1.00  0.00     0.047 A 
ATOM     20  C   UNL     1      25.148 -33.304  23.505  1.00  0.00     0.128 A 
BRANCH  20  21
ATOM     21  O   UNL     1      23.978 -33.122  24.195  1.00  0.00    -0.496 OA
ATOM     22  C   UNL     1      23.931 -32.028  25.111  1.00  0.00     0.278 C 
ENDBRANCH  20  21
ENDBRANCH  10  15
ENDBRANCH   1   9
BRANCH   6  23
ATOM     23  C   UNL     1      25.166 -39.742  16.285  1.00  0.00     0.056 A 
ATOM     24  C   UNL     1      24.137 -39.781  15.339  1.00  0.00     0.034 A 
ATOM     25  C   UNL     1      26.103 -40.780  16.319  1.00  0.00     0.071 A 
ATOM     26  C   UNL     1      24.045 -40.838  14.435  1.00  0.00     0.088 A 
ATOM     27  C   UNL     1      26.012 -41.834  15.419  1.00  0.00     0.108 A 
ATOM     28  C   UNL     1      24.988 -41.864  14.484  1.00  0.00     0.271 A 
ATOM     29  Cl  UNL     1      27.422 -40.850  17.426  1.00  0.00    -0.082 Cl
BRANCH  28  30
ATOM     30  N   UNL     1      24.938 -42.956  13.589  1.00  0.00     0.062 N 
ATOM     31  O   UNL     1      25.532 -42.876  12.484  1.00  0.00    -0.258 OA
ATOM     32  O   UNL     1      24.296 -43.976  13.943  1.00  0.00    -0.258 OA
ENDBRANCH  28  30
ENDBRANCH   6  23
TORSDOF 5
ENDMDL
