REMARK SMILES COc1ccccc1-c1noc(C)c1C(=O)N1CCN(c2ccc([N+](=O)[O-])cc2Cl)CC1
REMARK SMILES IDX 15 1 19 2 31 3 18 4 32 5 20 6 17 7 16 8 14 9 9 10 10 11
REMARK SMILES IDX 12 12 11 13 13 14 8 15 6 16 5 17 7 18 4 19 3 20 2 21 1 22
REMARK SMILES IDX 21 23 22 24 29 25 23 26 28 27 24 28 30 29 25 30 26 31 27 32
REMARK H PARENT
ROOT
ATOM      1  C   UNL     1      22.922 -38.004  20.080  1.00  0.00     0.259 C 
ATOM      2  C   UNL     1      24.065 -35.088  18.131  1.00  0.00     0.138 C 
ATOM      3  C   UNL     1      24.426 -37.192  16.863  1.00  0.00     0.138 C 
ATOM      4  C   UNL     1      22.981 -35.790  18.954  1.00  0.00     0.141 C 
ATOM      5  C   UNL     1      23.229 -37.817  17.575  1.00  0.00     0.141 C 
ATOM      6  N   UNL     1      24.320 -35.729  16.830  1.00  0.00    -0.367 N 
ATOM      7  N   UNL     1      23.050 -37.251  18.913  1.00  0.00    -0.335 N 
ATOM      8  O   UNL     1      22.953 -39.229  20.127  1.00  0.00    -0.269 OA
ENDROOT
BRANCH   1   9
ATOM      9  C   UNL     1      22.737 -37.333  21.371  1.00  0.00     0.110 A 
ATOM     10  C   UNL     1      23.497 -36.336  22.011  1.00  0.00     0.130 A 
ATOM     11  N   UNL     1      22.981 -35.996  23.196  1.00  0.00    -0.079 NA
ATOM     12  C   UNL     1      21.725 -37.593  22.255  1.00  0.00     0.147 A 
ATOM     13  O   UNL     1      21.853 -36.799  23.349  1.00  0.00    -0.360 OA
ATOM     14  C   UNL     1      20.579 -38.511  22.247  1.00  0.00     0.092 C 
BRANCH  10  15
ATOM     15  C   UNL     1      24.690 -35.687  21.526  1.00  0.00     0.047 A 
ATOM     16  C   UNL     1      25.934 -33.645  21.186  1.00  0.00     0.001 A 
ATOM     17  C   UNL     1      26.969 -34.369  20.596  1.00  0.00     0.004 A 
ATOM     18  C   UNL     1      24.797 -34.302  21.649  1.00  0.00     0.014 A 
ATOM     19  C   UNL     1      26.867 -35.753  20.467  1.00  0.00     0.047 A 
ATOM     20  C   UNL     1      25.728 -36.417  20.933  1.00  0.00     0.128 A 
BRANCH  20  21
ATOM     21  O   UNL     1      25.666 -37.779  20.792  1.00  0.00    -0.496 OA
ATOM     22  C   UNL     1      26.903 -38.469  20.619  1.00  0.00     0.278 C 
ENDBRANCH  20  21
ENDBRANCH  10  15
ENDBRANCH   1   9
BRANCH   6  23
ATOM     23  C   UNL     1      25.099 -35.016  15.907  1.00  0.00     0.056 A 
ATOM     24  C   UNL     1      26.378 -35.504  15.623  1.00  0.00     0.034 A 
ATOM     25  C   UNL     1      24.657 -33.848  15.277  1.00  0.00     0.071 A 
ATOM     26  C   UNL     1      27.206 -34.839  14.719  1.00  0.00     0.088 A 
ATOM     27  C   UNL     1      25.481 -33.185  14.377  1.00  0.00     0.108 A 
ATOM     28  C   UNL     1      26.749 -33.676  14.101  1.00  0.00     0.271 A 
ATOM     29  Cl  UNL     1      23.104 -33.146  15.531  1.00  0.00    -0.082 Cl
BRANCH  28  30
ATOM     30  N   UNL     1      27.549 -32.968  13.177  1.00  0.00     0.062 N 
ATOM     31  O   UNL     1      28.701 -33.391  12.907  1.00  0.00    -0.258 OA
ATOM     32  O   UNL     1      27.064 -31.933  12.655  1.00  0.00    -0.258 OA
ENDBRANCH  28  30
ENDBRANCH   6  23
TORSDOF 5
