MODEL 1
REMARK VINA RESULT:    -6.862      0.000      0.000
REMARK INTER + INTRA:          -9.689
REMARK INTER:                  -8.868
REMARK INTRA:                  -0.822
REMARK UNBOUND:                -0.822
REMARK SMILES COc1ccccc1-c1noc(C)c1C(=O)N1CCN(c2ccc([N+](=O)[O-])cc2Cl)CC1
REMARK SMILES IDX 15 1 19 2 31 3 18 4 32 5 20 6 17 7 16 8 14 9 9 10 10 11
REMARK SMILES IDX 12 12 11 13 13 14 8 15 6 16 5 17 7 18 4 19 3 20 2 21 1 22
REMARK SMILES IDX 21 23 22 24 29 25 23 26 28 27 24 28 30 29 25 30 26 31 27 32
REMARK H PARENT
ROOT
ATOM      1  C   UNL     1      25.402 -35.618  19.864  1.00  0.00     0.259 C 
ATOM      2  C   UNL     1      24.707 -33.016  22.385  1.00  0.00     0.138 C 
ATOM      3  C   UNL     1      27.075 -33.754  22.509  1.00  0.00     0.138 C 
ATOM      4  C   UNL     1      24.648 -33.507  20.935  1.00  0.00     0.141 C 
ATOM      5  C   UNL     1      27.044 -34.076  21.017  1.00  0.00     0.141 C 
ATOM      6  N   UNL     1      26.075 -32.737  22.854  1.00  0.00    -0.367 N 
ATOM      7  N   UNL     1      25.701 -34.461  20.583  1.00  0.00    -0.335 N 
ATOM      8  O   UNL     1      26.228 -36.456  19.517  1.00  0.00    -0.269 OA
ENDROOT
BRANCH   1   9
ATOM      9  C   UNL     1      24.019 -35.902  19.470  1.00  0.00     0.110 A 
ATOM     10  C   UNL     1      23.330 -35.650  18.268  1.00  0.00     0.130 A 
ATOM     11  N   UNL     1      22.061 -36.068  18.321  1.00  0.00    -0.079 NA
ATOM     12  C   UNL     1      23.078 -36.491  20.270  1.00  0.00     0.147 A 
ATOM     13  O   UNL     1      21.904 -36.602  19.597  1.00  0.00    -0.360 OA
ATOM     14  C   UNL     1      23.093 -37.010  21.644  1.00  0.00     0.092 C 
BRANCH  10  15
ATOM     15  C   UNL     1      23.843 -35.036  17.068  1.00  0.00     0.047 A 
ATOM     16  C   UNL     1      23.716 -33.248  15.450  1.00  0.00     0.001 A 
ATOM     17  C   UNL     1      24.781 -33.806  14.744  1.00  0.00     0.004 A 
ATOM     18  C   UNL     1      23.247 -33.862  16.608  1.00  0.00     0.014 A 
ATOM     19  C   UNL     1      25.378 -34.981  15.196  1.00  0.00     0.047 A 
ATOM     20  C   UNL     1      24.912 -35.600  16.361  1.00  0.00     0.128 A 
BRANCH  20  21
ATOM     21  O   UNL     1      25.528 -36.752  16.776  1.00  0.00    -0.496 OA
ATOM     22  C   UNL     1      24.993 -37.983  16.291  1.00  0.00     0.278 C 
ENDBRANCH  20  21
ENDBRANCH  10  15
ENDBRANCH   1   9
BRANCH   6  23
ATOM     23  C   UNL     1      26.207 -32.043  24.065  1.00  0.00     0.056 A 
ATOM     24  C   UNL     1      25.492 -32.520  25.168  1.00  0.00     0.034 A 
ATOM     25  C   UNL     1      27.006 -30.904  24.209  1.00  0.00     0.071 A 
ATOM     26  C   UNL     1      25.575 -31.873  26.400  1.00  0.00     0.088 A 
ATOM     27  C   UNL     1      27.088 -30.258  25.436  1.00  0.00     0.108 A 
ATOM     28  C   UNL     1      26.375 -30.739  26.525  1.00  0.00     0.271 A 
ATOM     29  Cl  UNL     1      27.942 -30.218  22.935  1.00  0.00    -0.082 Cl
BRANCH  28  30
ATOM     30  N   UNL     1      26.493 -30.049  27.752  1.00  0.00     0.062 N 
ATOM     31  O   UNL     1      26.365 -28.799  27.773  1.00  0.00    -0.258 OA
ATOM     32  O   UNL     1      26.719 -30.728  28.785  1.00  0.00    -0.258 OA
ENDBRANCH  28  30
ENDBRANCH   6  23
TORSDOF 5
ENDMDL
MODEL 2
REMARK VINA RESULT:    -6.066      6.727     12.405
REMARK INTER + INTRA:          -8.661
REMARK INTER:                  -7.264
REMARK INTRA:                  -1.397
REMARK UNBOUND:                -0.822
REMARK SMILES COc1ccccc1-c1noc(C)c1C(=O)N1CCN(c2ccc([N+](=O)[O-])cc2Cl)CC1
REMARK SMILES IDX 15 1 19 2 31 3 18 4 32 5 20 6 17 7 16 8 14 9 9 10 10 11
REMARK SMILES IDX 12 12 11 13 13 14 8 15 6 16 5 17 7 18 4 19 3 20 2 21 1 22
REMARK SMILES IDX 21 23 22 24 29 25 23 26 28 27 24 28 30 29 25 30 26 31 27 32
REMARK H PARENT
ROOT
ATOM      1  C   UNL     1      29.030 -41.002  17.884  1.00  0.00     0.259 C 
ATOM      2  C   UNL     1      26.203 -42.602  16.136  1.00  0.00     0.138 C 
ATOM      3  C   UNL     1      27.946 -41.885  14.520  1.00  0.00     0.138 C 
ATOM      4  C   UNL     1      27.262 -42.626  17.242  1.00  0.00     0.141 C 
ATOM      5  C   UNL     1      29.012 -42.081  15.595  1.00  0.00     0.141 C 
ATOM      6  N   UNL     1      26.768 -42.719  14.781  1.00  0.00    -0.367 N 
ATOM      7  N   UNL     1      28.466 -41.854  16.934  1.00  0.00    -0.335 N 
ATOM      8  O   UNL     1      30.044 -40.335  17.709  1.00  0.00    -0.269 OA
ENDROOT
BRANCH   1   9
ATOM      9  C   UNL     1      28.405 -40.855  19.202  1.00  0.00     0.110 A 
ATOM     10  C   UNL     1      27.467 -39.921  19.681  1.00  0.00     0.130 A 
ATOM     11  N   UNL     1      27.154 -40.136  20.962  1.00  0.00    -0.079 NA
ATOM     12  C   UNL     1      28.657 -41.652  20.286  1.00  0.00     0.147 A 
ATOM     13  O   UNL     1      27.914 -41.239  21.345  1.00  0.00    -0.360 OA
ATOM     14  C   UNL     1      29.526 -42.814  20.514  1.00  0.00     0.092 C 
BRANCH  10  15
ATOM     15  C   UNL     1      26.850 -38.838  18.955  1.00  0.00     0.047 A 
ATOM     16  C   UNL     1      25.080 -38.077  17.499  1.00  0.00     0.001 A 
ATOM     17  C   UNL     1      25.613 -36.789  17.518  1.00  0.00     0.004 A 
ATOM     18  C   UNL     1      25.697 -39.099  18.215  1.00  0.00     0.014 A 
ATOM     19  C   UNL     1      26.766 -36.522  18.254  1.00  0.00     0.047 A 
ATOM     20  C   UNL     1      27.388 -37.545  18.976  1.00  0.00     0.128 A 
BRANCH  20  21
ATOM     21  O   UNL     1      28.518 -37.244  19.690  1.00  0.00    -0.496 OA
ATOM     22  C   UNL     1      29.225 -36.062  19.315  1.00  0.00     0.278 C 
ENDBRANCH  20  21
ENDBRANCH  10  15
ENDBRANCH   1   9
BRANCH   6  23
ATOM     23  C   UNL     1      25.870 -42.968  13.733  1.00  0.00     0.056 A 
ATOM     24  C   UNL     1      25.886 -44.239  13.152  1.00  0.00     0.034 A 
ATOM     25  C   UNL     1      24.980 -42.005  13.246  1.00  0.00     0.071 A 
ATOM     26  C   UNL     1      25.023 -44.550  12.101  1.00  0.00     0.088 A 
ATOM     27  C   UNL     1      24.121 -42.313  12.200  1.00  0.00     0.108 A 
ATOM     28  C   UNL     1      24.143 -43.577  11.629  1.00  0.00     0.271 A 
ATOM     29  Cl  UNL     1      24.853 -40.406  13.877  1.00  0.00    -0.082 Cl
BRANCH  28  30
ATOM     30  N   UNL     1      23.249 -43.843  10.569  1.00  0.00     0.062 N 
ATOM     31  O   UNL     1      22.164 -43.213  10.504  1.00  0.00    -0.258 OA
ATOM     32  O   UNL     1      23.585 -44.709   9.722  1.00  0.00    -0.258 OA
ENDBRANCH  28  30
ENDBRANCH   6  23
TORSDOF 5
ENDMDL
MODEL 3
REMARK VINA RESULT:    -5.485      4.360      7.365
REMARK INTER + INTRA:          -7.910
REMARK INTER:                  -7.757
REMARK INTRA:                  -0.153
REMARK UNBOUND:                -0.822
REMARK SMILES COc1ccccc1-c1noc(C)c1C(=O)N1CCN(c2ccc([N+](=O)[O-])cc2Cl)CC1
REMARK SMILES IDX 15 1 19 2 31 3 18 4 32 5 20 6 17 7 16 8 14 9 9 10 10 11
REMARK SMILES IDX 12 12 11 13 13 14 8 15 6 16 5 17 7 18 4 19 3 20 2 21 1 22
REMARK SMILES IDX 21 23 22 24 29 25 23 26 28 27 24 28 30 29 25 30 26 31 27 32
REMARK H PARENT
ROOT
ATOM      1  C   UNL     1      25.167 -34.897  20.014  1.00  0.00     0.259 C 
ATOM      2  C   UNL     1      27.448 -37.564  18.877  1.00  0.00     0.138 C 
ATOM      3  C   UNL     1      28.718 -35.523  19.498  1.00  0.00     0.138 C 
ATOM      4  C   UNL     1      26.295 -37.097  19.771  1.00  0.00     0.141 C 
ATOM      5  C   UNL     1      27.634 -35.166  20.511  1.00  0.00     0.141 C 
ATOM      6  N   UNL     1      28.745 -36.966  19.235  1.00  0.00    -0.367 N 
ATOM      7  N   UNL     1      26.325 -35.670  20.091  1.00  0.00    -0.335 N 
ATOM      8  O   UNL     1      25.107 -33.701  20.280  1.00  0.00    -0.269 OA
ENDROOT
BRANCH   1   9
ATOM      9  C   UNL     1      23.903 -35.507  19.588  1.00  0.00     0.110 A 
ATOM     10  C   UNL     1      23.258 -35.519  18.337  1.00  0.00     0.130 A 
ATOM     11  N   UNL     1      22.105 -36.194  18.374  1.00  0.00    -0.079 NA
ATOM     12  C   UNL     1      23.055 -36.210  20.401  1.00  0.00     0.147 A 
ATOM     13  O   UNL     1      21.978 -36.632  19.690  1.00  0.00    -0.360 OA
ATOM     14  C   UNL     1      23.087 -36.586  21.820  1.00  0.00     0.092 C 
BRANCH  10  15
ATOM     15  C   UNL     1      23.710 -34.921  17.105  1.00  0.00     0.047 A 
ATOM     16  C   UNL     1      23.499 -33.156  15.470  1.00  0.00     0.001 A 
ATOM     17  C   UNL     1      24.531 -33.721  14.721  1.00  0.00     0.004 A 
ATOM     18  C   UNL     1      23.089 -33.755  16.658  1.00  0.00     0.014 A 
ATOM     19  C   UNL     1      25.154 -34.887  15.161  1.00  0.00     0.047 A 
ATOM     20  C   UNL     1      24.747 -35.491  16.355  1.00  0.00     0.128 A 
BRANCH  20  21
ATOM     21  O   UNL     1      25.386 -36.635  16.756  1.00  0.00    -0.496 OA
ATOM     22  C   UNL     1      24.931 -37.863  16.191  1.00  0.00     0.278 C 
ENDBRANCH  20  21
ENDBRANCH  10  15
ENDBRANCH   1   9
BRANCH   6  23
ATOM     23  C   UNL     1      29.890 -37.525  18.650  1.00  0.00     0.056 A 
ATOM     24  C   UNL     1      30.110 -38.894  18.830  1.00  0.00     0.034 A 
ATOM     25  C   UNL     1      30.813 -36.776  17.912  1.00  0.00     0.071 A 
ATOM     26  C   UNL     1      31.233 -39.511  18.279  1.00  0.00     0.088 A 
ATOM     27  C   UNL     1      31.931 -37.389  17.363  1.00  0.00     0.108 A 
ATOM     28  C   UNL     1      32.142 -38.748  17.548  1.00  0.00     0.271 A 
ATOM     29  Cl  UNL     1      30.658 -35.087  17.608  1.00  0.00    -0.082 Cl
BRANCH  28  30
ATOM     30  N   UNL     1      33.293 -39.327  16.968  1.00  0.00     0.062 N 
ATOM     31  O   UNL     1      33.686 -38.925  15.845  1.00  0.00    -0.258 OA
ATOM     32  O   UNL     1      33.883 -40.228  17.614  1.00  0.00    -0.258 OA
ENDBRANCH  28  30
ENDBRANCH   6  23
TORSDOF 5
ENDMDL
MODEL 4
REMARK VINA RESULT:    -5.466      5.094     11.412
REMARK INTER + INTRA:          -7.885
REMARK INTER:                  -6.813
REMARK INTRA:                  -1.073
REMARK UNBOUND:                -0.822
REMARK SMILES COc1ccccc1-c1noc(C)c1C(=O)N1CCN(c2ccc([N+](=O)[O-])cc2Cl)CC1
REMARK SMILES IDX 15 1 19 2 31 3 18 4 32 5 20 6 17 7 16 8 14 9 9 10 10 11
REMARK SMILES IDX 12 12 11 13 13 14 8 15 6 16 5 17 7 18 4 19 3 20 2 21 1 22
REMARK SMILES IDX 21 23 22 24 29 25 23 26 28 27 24 28 30 29 25 30 26 31 27 32
REMARK H PARENT
ROOT
ATOM      1  C   UNL     1      25.656 -37.274  18.176  1.00  0.00     0.259 C 
ATOM      2  C   UNL     1      24.151 -39.523  15.670  1.00  0.00     0.138 C 
ATOM      3  C   UNL     1      26.348 -40.395  16.429  1.00  0.00     0.138 C 
ATOM      4  C   UNL     1      24.038 -38.723  16.971  1.00  0.00     0.141 C 
ATOM      5  C   UNL     1      26.134 -39.728  17.786  1.00  0.00     0.141 C 
ATOM      6  N   UNL     1      25.069 -40.670  15.765  1.00  0.00    -0.367 N 
ATOM      7  N   UNL     1      25.311 -38.524  17.664  1.00  0.00    -0.335 N 
ATOM      8  O   UNL     1      26.694 -37.031  18.782  1.00  0.00    -0.269 OA
ENDROOT
BRANCH   1   9
ATOM      9  C   UNL     1      24.750 -36.134  18.005  1.00  0.00     0.110 A 
ATOM     10  C   UNL     1      23.753 -35.611  18.850  1.00  0.00     0.130 A 
ATOM     11  N   UNL     1      23.144 -34.551  18.310  1.00  0.00    -0.079 NA
ATOM     12  C   UNL     1      24.700 -35.328  16.900  1.00  0.00     0.147 A 
ATOM     13  O   UNL     1      23.749 -34.373  17.068  1.00  0.00    -0.360 OA
ATOM     14  C   UNL     1      25.444 -35.290  15.635  1.00  0.00     0.092 C 
BRANCH  10  15
ATOM     15  C   UNL     1      23.370 -36.079  20.159  1.00  0.00     0.047 A 
ATOM     16  C   UNL     1      22.002 -37.543  21.507  1.00  0.00     0.001 A 
ATOM     17  C   UNL     1      22.576 -37.020  22.665  1.00  0.00     0.004 A 
ATOM     18  C   UNL     1      22.397 -37.073  20.258  1.00  0.00     0.014 A 
ATOM     19  C   UNL     1      23.547 -36.025  22.574  1.00  0.00     0.047 A 
ATOM     20  C   UNL     1      23.949 -35.552  21.321  1.00  0.00     0.128 A 
BRANCH  20  21
ATOM     21  O   UNL     1      24.909 -34.575  21.272  1.00  0.00    -0.496 OA
ATOM     22  C   UNL     1      24.597 -33.329  21.893  1.00  0.00     0.278 C 
ENDBRANCH  20  21
ENDBRANCH  10  15
ENDBRANCH   1   9
BRANCH   6  23
ATOM     23  C   UNL     1      25.038 -41.604  14.719  1.00  0.00     0.056 A 
ATOM     24  C   UNL     1      24.502 -41.190  13.496  1.00  0.00     0.034 A 
ATOM     25  C   UNL     1      25.506 -42.915  14.852  1.00  0.00     0.071 A 
ATOM     26  C   UNL     1      24.436 -42.071  12.416  1.00  0.00     0.088 A 
ATOM     27  C   UNL     1      25.440 -43.793  13.778  1.00  0.00     0.108 A 
ATOM     28  C   UNL     1      24.907 -43.374  12.568  1.00  0.00     0.271 A 
ATOM     29  Cl  UNL     1      26.195 -43.548  16.299  1.00  0.00    -0.082 Cl
BRANCH  28  30
ATOM     30  N   UNL     1      24.864 -44.302  11.504  1.00  0.00     0.062 N 
ATOM     31  O   UNL     1      23.751 -44.683  11.061  1.00  0.00    -0.258 OA
ATOM     32  O   UNL     1      25.958 -44.710  11.038  1.00  0.00    -0.258 OA
ENDBRANCH  28  30
ENDBRANCH   6  23
TORSDOF 5
ENDMDL
MODEL 5
REMARK VINA RESULT:    -5.098      7.548     11.593
REMARK INTER + INTRA:          -7.410
REMARK INTER:                  -6.324
REMARK INTRA:                  -1.086
REMARK UNBOUND:                -0.822
REMARK SMILES COc1ccccc1-c1noc(C)c1C(=O)N1CCN(c2ccc([N+](=O)[O-])cc2Cl)CC1
REMARK SMILES IDX 15 1 19 2 31 3 18 4 32 5 20 6 17 7 16 8 14 9 9 10 10 11
REMARK SMILES IDX 12 12 11 13 13 14 8 15 6 16 5 17 7 18 4 19 3 20 2 21 1 22
REMARK SMILES IDX 21 23 22 24 29 25 23 26 28 27 24 28 30 29 25 30 26 31 27 32
REMARK H PARENT
ROOT
ATOM      1  C   UNL     1      32.354 -40.630  17.756  1.00  0.00     0.259 C 
ATOM      2  C   UNL     1      28.676 -40.800  17.991  1.00  0.00     0.138 C 
ATOM      3  C   UNL     1      29.466 -41.748  15.837  1.00  0.00     0.138 C 
ATOM      4  C   UNL     1      30.057 -41.069  18.596  1.00  0.00     0.141 C 
ATOM      5  C   UNL     1      30.773 -42.163  16.508  1.00  0.00     0.141 C 
ATOM      6  N   UNL     1      28.379 -41.636  16.815  1.00  0.00    -0.367 N 
ATOM      7  N   UNL     1      31.118 -41.259  17.606  1.00  0.00    -0.335 N 
ATOM      8  O   UNL     1      33.296 -40.751  16.980  1.00  0.00    -0.269 OA
ENDROOT
BRANCH   1   9
ATOM      9  C   UNL     1      32.596 -39.749  18.903  1.00  0.00     0.110 A 
ATOM     10  C   UNL     1      32.496 -38.351  19.030  1.00  0.00     0.130 A 
ATOM     11  N   UNL     1      32.812 -37.936  20.261  1.00  0.00    -0.079 NA
ATOM     12  C   UNL     1      33.012 -40.163  20.139  1.00  0.00     0.147 A 
ATOM     13  O   UNL     1      33.141 -39.093  20.965  1.00  0.00    -0.360 OA
ATOM     14  C   UNL     1      33.320 -41.475  20.721  1.00  0.00     0.092 C 
BRANCH  10  15
ATOM     15  C   UNL     1      32.097 -37.398  18.024  1.00  0.00     0.047 A 
ATOM     16  C   UNL     1      32.570 -36.288  15.932  1.00  0.00     0.001 A 
ATOM     17  C   UNL     1      31.387 -35.559  16.047  1.00  0.00     0.004 A 
ATOM     18  C   UNL     1      32.925 -37.204  16.919  1.00  0.00     0.014 A 
ATOM     19  C   UNL     1      30.557 -35.746  17.151  1.00  0.00     0.047 A 
ATOM     20  C   UNL     1      30.908 -36.667  18.142  1.00  0.00     0.128 A 
BRANCH  20  21
ATOM     21  O   UNL     1      30.065 -36.825  19.211  1.00  0.00    -0.496 OA
ATOM     22  C   UNL     1      28.902 -35.999  19.246  1.00  0.00     0.278 C 
ENDBRANCH  20  21
ENDBRANCH  10  15
ENDBRANCH   1   9
BRANCH   6  23
ATOM     23  C   UNL     1      27.053 -41.647  16.357  1.00  0.00     0.056 A 
ATOM     24  C   UNL     1      26.319 -40.462  16.464  1.00  0.00     0.034 A 
ATOM     25  C   UNL     1      26.444 -42.783  15.815  1.00  0.00     0.071 A 
ATOM     26  C   UNL     1      24.994 -40.408  16.032  1.00  0.00     0.088 A 
ATOM     27  C   UNL     1      25.124 -42.730  15.385  1.00  0.00     0.108 A 
ATOM     28  C   UNL     1      24.403 -41.550  15.495  1.00  0.00     0.271 A 
ATOM     29  Cl  UNL     1      27.236 -44.301  15.620  1.00  0.00    -0.082 Cl
BRANCH  28  30
ATOM     30  N   UNL     1      23.065 -41.545  15.042  1.00  0.00     0.062 N 
ATOM     31  O   UNL     1      22.530 -42.624  14.684  1.00  0.00    -0.258 OA
ATOM     32  O   UNL     1      22.458 -40.445  15.021  1.00  0.00    -0.258 OA
ENDBRANCH  28  30
ENDBRANCH   6  23
TORSDOF 5
ENDMDL
MODEL 6
REMARK VINA RESULT:    -4.899      4.185      9.996
REMARK INTER + INTRA:          -7.152
REMARK INTER:                  -6.343
REMARK INTRA:                  -0.809
REMARK UNBOUND:                -0.822
REMARK SMILES COc1ccccc1-c1noc(C)c1C(=O)N1CCN(c2ccc([N+](=O)[O-])cc2Cl)CC1
REMARK SMILES IDX 15 1 19 2 31 3 18 4 32 5 20 6 17 7 16 8 14 9 9 10 10 11
REMARK SMILES IDX 12 12 11 13 13 14 8 15 6 16 5 17 7 18 4 19 3 20 2 21 1 22
REMARK SMILES IDX 21 23 22 24 29 25 23 26 28 27 24 28 30 29 25 30 26 31 27 32
REMARK H PARENT
ROOT
ATOM      1  C   UNL     1      23.980 -35.715  19.426  1.00  0.00     0.259 C 
ATOM      2  C   UNL     1      24.930 -39.176  18.571  1.00  0.00     0.138 C 
ATOM      3  C   UNL     1      24.505 -37.846  16.518  1.00  0.00     0.138 C 
ATOM      4  C   UNL     1      25.201 -37.877  19.336  1.00  0.00     0.141 C 
ATOM      5  C   UNL     1      24.947 -36.584  17.254  1.00  0.00     0.141 C 
ATOM      6  N   UNL     1      25.103 -39.045  17.115  1.00  0.00    -0.367 N 
ATOM      7  N   UNL     1      24.668 -36.678  18.688  1.00  0.00    -0.335 N 
ATOM      8  O   UNL     1      23.518 -34.679  18.961  1.00  0.00    -0.269 OA
ENDROOT
BRANCH   1   9
ATOM      9  C   UNL     1      23.764 -35.907  20.864  1.00  0.00     0.110 A 
ATOM     10  C   UNL     1      24.316 -35.245  21.977  1.00  0.00     0.130 A 
ATOM     11  N   UNL     1      23.851 -35.733  23.131  1.00  0.00    -0.079 NA
ATOM     12  C   UNL     1      22.938 -36.847  21.417  1.00  0.00     0.147 A 
ATOM     13  O   UNL     1      22.975 -36.754  22.771  1.00  0.00    -0.360 OA
ATOM     14  C   UNL     1      22.057 -37.881  20.859  1.00  0.00     0.092 C 
BRANCH  10  15
ATOM     15  C   UNL     1      25.260 -34.155  21.978  1.00  0.00     0.047 A 
ATOM     16  C   UNL     1      25.760 -31.859  22.538  1.00  0.00     0.001 A 
ATOM     17  C   UNL     1      27.038 -32.002  21.999  1.00  0.00     0.004 A 
ATOM     18  C   UNL     1      24.873 -32.933  22.526  1.00  0.00     0.014 A 
ATOM     19  C   UNL     1      27.430 -33.220  21.446  1.00  0.00     0.047 A 
ATOM     20  C   UNL     1      26.544 -34.301  21.435  1.00  0.00     0.128 A 
BRANCH  20  21
ATOM     21  O   UNL     1      26.967 -35.483  20.886  1.00  0.00    -0.496 OA
ATOM     22  C   UNL     1      27.941 -35.403  19.847  1.00  0.00     0.278 C 
ENDBRANCH  20  21
ENDBRANCH  10  15
ENDBRANCH   1   9
BRANCH   6  23
ATOM     23  C   UNL     1      25.131 -40.230  16.365  1.00  0.00     0.056 A 
ATOM     24  C   UNL     1      23.996 -40.551  15.614  1.00  0.00     0.034 A 
ATOM     25  C   UNL     1      26.230 -41.096  16.348  1.00  0.00     0.071 A 
ATOM     26  C   UNL     1      23.957 -41.718  14.851  1.00  0.00     0.088 A 
ATOM     27  C   UNL     1      26.191 -42.259  15.589  1.00  0.00     0.108 A 
ATOM     28  C   UNL     1      25.061 -42.569  14.846  1.00  0.00     0.271 A 
ATOM     29  Cl  UNL     1      27.690 -40.816  17.219  1.00  0.00    -0.082 Cl
BRANCH  28  30
ATOM     30  N   UNL     1      25.070 -43.761  14.089  1.00  0.00     0.062 N 
ATOM     31  O   UNL     1      26.063 -44.025  13.366  1.00  0.00    -0.258 OA
ATOM     32  O   UNL     1      24.071 -44.518  14.176  1.00  0.00    -0.258 OA
ENDBRANCH  28  30
ENDBRANCH   6  23
TORSDOF 5
ENDMDL
MODEL 7
REMARK VINA RESULT:    -4.781      3.470      9.284
REMARK INTER + INTRA:          -7.000
REMARK INTER:                  -5.608
REMARK INTRA:                  -1.392
REMARK UNBOUND:                -0.822
REMARK SMILES COc1ccccc1-c1noc(C)c1C(=O)N1CCN(c2ccc([N+](=O)[O-])cc2Cl)CC1
REMARK SMILES IDX 15 1 19 2 31 3 18 4 32 5 20 6 17 7 16 8 14 9 9 10 10 11
REMARK SMILES IDX 12 12 11 13 13 14 8 15 6 16 5 17 7 18 4 19 3 20 2 21 1 22
REMARK SMILES IDX 21 23 22 24 29 25 23 26 28 27 24 28 30 29 25 30 26 31 27 32
REMARK H PARENT
ROOT
ATOM      1  C   UNL     1      27.705 -30.283  23.536  1.00  0.00     0.259 C 
ATOM      2  C   UNL     1      26.481 -33.763  23.548  1.00  0.00     0.138 C 
ATOM      3  C   UNL     1      25.482 -32.484  21.669  1.00  0.00     0.138 C 
ATOM      4  C   UNL     1      27.643 -32.766  23.586  1.00  0.00     0.141 C 
ATOM      5  C   UNL     1      26.731 -31.608  21.612  1.00  0.00     0.141 C 
ATOM      6  N   UNL     1      25.780 -33.797  22.254  1.00  0.00    -0.367 N 
ATOM      7  N   UNL     1      27.360 -31.490  22.929  1.00  0.00    -0.335 N 
ATOM      8  O   UNL     1      27.515 -29.176  23.045  1.00  0.00    -0.269 OA
ENDROOT
BRANCH   1   9
ATOM      9  C   UNL     1      28.341 -30.281  24.858  1.00  0.00     0.110 A 
ATOM     10  C   UNL     1      29.696 -30.355  25.231  1.00  0.00     0.130 A 
ATOM     11  N   UNL     1      29.853 -30.325  26.557  1.00  0.00    -0.079 NA
ATOM     12  C   UNL     1      27.674 -30.220  26.051  1.00  0.00     0.147 A 
ATOM     13  O   UNL     1      28.564 -30.240  27.077  1.00  0.00    -0.360 OA
ATOM     14  C   UNL     1      26.256 -30.131  26.420  1.00  0.00     0.092 C 
BRANCH  10  15
ATOM     15  C   UNL     1      30.847 -30.439  24.366  1.00  0.00     0.047 A 
ATOM     16  C   UNL     1      32.452 -31.813  23.196  1.00  0.00     0.001 A 
ATOM     17  C   UNL     1      33.079 -30.669  22.704  1.00  0.00     0.004 A 
ATOM     18  C   UNL     1      31.340 -31.698  24.025  1.00  0.00     0.014 A 
ATOM     19  C   UNL     1      32.594 -29.407  23.043  1.00  0.00     0.047 A 
ATOM     20  C   UNL     1      31.475 -29.288  23.874  1.00  0.00     0.128 A 
BRANCH  20  21
ATOM     21  O   UNL     1      31.026 -28.030  24.181  1.00  0.00    -0.496 OA
ATOM     22  C   UNL     1      31.845 -27.242  25.044  1.00  0.00     0.278 C 
ENDBRANCH  20  21
ENDBRANCH  10  15
ENDBRANCH   1   9
BRANCH   6  23
ATOM     23  C   UNL     1      24.881 -34.851  22.040  1.00  0.00     0.056 A 
ATOM     24  C   UNL     1      23.975 -35.149  23.063  1.00  0.00     0.034 A 
ATOM     25  C   UNL     1      24.862 -35.612  20.866  1.00  0.00     0.071 A 
ATOM     26  C   UNL     1      23.058 -36.190  22.916  1.00  0.00     0.088 A 
ATOM     27  C   UNL     1      23.949 -36.648  20.720  1.00  0.00     0.108 A 
ATOM     28  C   UNL     1      23.054 -36.938  21.740  1.00  0.00     0.271 A 
ATOM     29  Cl  UNL     1      25.916 -35.345  19.529  1.00  0.00    -0.082 Cl
BRANCH  28  30
ATOM     30  N   UNL     1      22.144 -38.000  21.543  1.00  0.00     0.062 N 
ATOM     31  O   UNL     1      22.482 -38.978  20.831  1.00  0.00    -0.258 OA
ATOM     32  O   UNL     1      21.021 -37.919  22.101  1.00  0.00    -0.258 OA
ENDBRANCH  28  30
ENDBRANCH   6  23
TORSDOF 5
ENDMDL
MODEL 8
REMARK VINA RESULT:    -4.685      3.395      9.332
REMARK INTER + INTRA:          -6.876
REMARK INTER:                  -5.679
REMARK INTRA:                  -1.197
REMARK UNBOUND:                -0.822
REMARK SMILES COc1ccccc1-c1noc(C)c1C(=O)N1CCN(c2ccc([N+](=O)[O-])cc2Cl)CC1
REMARK SMILES IDX 15 1 19 2 31 3 18 4 32 5 20 6 17 7 16 8 14 9 9 10 10 11
REMARK SMILES IDX 12 12 11 13 13 14 8 15 6 16 5 17 7 18 4 19 3 20 2 21 1 22
REMARK SMILES IDX 21 23 22 24 29 25 23 26 28 27 24 28 30 29 25 30 26 31 27 32
REMARK H PARENT
ROOT
ATOM      1  C   UNL     1      27.151 -29.963  23.915  1.00  0.00     0.259 C 
ATOM      2  C   UNL     1      25.776 -33.380  24.120  1.00  0.00     0.138 C 
ATOM      3  C   UNL     1      25.604 -32.498  21.805  1.00  0.00     0.138 C 
ATOM      4  C   UNL     1      26.911 -32.389  24.395  1.00  0.00     0.141 C 
ATOM      5  C   UNL     1      26.846 -31.643  22.047  1.00  0.00     0.141 C 
ATOM      6  N   UNL     1      25.585 -33.669  22.689  1.00  0.00    -0.367 N 
ATOM      7  N   UNL     1      26.967 -31.267  23.457  1.00  0.00    -0.335 N 
ATOM      8  O   UNL     1      27.225 -28.974  23.194  1.00  0.00    -0.269 OA
ENDROOT
BRANCH   1   9
ATOM      9  C   UNL     1      27.270 -29.699  25.353  1.00  0.00     0.110 A 
ATOM     10  C   UNL     1      28.403 -29.520  26.169  1.00  0.00     0.130 A 
ATOM     11  N   UNL     1      28.072 -29.302  27.445  1.00  0.00    -0.079 NA
ATOM     12  C   UNL     1      26.219 -29.591  26.222  1.00  0.00     0.147 A 
ATOM     13  O   UNL     1      26.681 -29.348  27.476  1.00  0.00    -0.360 OA
ATOM     14  C   UNL     1      24.761 -29.672  26.070  1.00  0.00     0.092 C 
BRANCH  10  15
ATOM     15  C   UNL     1      29.789 -29.537  25.771  1.00  0.00     0.047 A 
ATOM     16  C   UNL     1      31.710 -28.334  24.936  1.00  0.00     0.001 A 
ATOM     17  C   UNL     1      32.466 -29.505  24.976  1.00  0.00     0.004 A 
ATOM     18  C   UNL     1      30.375 -28.350  25.331  1.00  0.00     0.014 A 
ATOM     19  C   UNL     1      31.886 -30.695  25.411  1.00  0.00     0.047 A 
ATOM     20  C   UNL     1      30.546 -30.715  25.812  1.00  0.00     0.128 A 
BRANCH  20  21
ATOM     21  O   UNL     1      30.012 -31.904  26.237  1.00  0.00    -0.496 OA
ATOM     22  C   UNL     1      30.356 -33.071  25.493  1.00  0.00     0.278 C 
ENDBRANCH  20  21
ENDBRANCH  10  15
ENDBRANCH   1   9
BRANCH   6  23
ATOM     23  C   UNL     1      24.754 -34.750  22.360  1.00  0.00     0.056 A 
ATOM     24  C   UNL     1      23.744 -35.091  23.264  1.00  0.00     0.034 A 
ATOM     25  C   UNL     1      24.900 -35.495  21.185  1.00  0.00     0.071 A 
ATOM     26  C   UNL     1      22.887 -36.159  23.000  1.00  0.00     0.088 A 
ATOM     27  C   UNL     1      24.048 -36.559  20.921  1.00  0.00     0.108 A 
ATOM     28  C   UNL     1      23.048 -36.891  21.824  1.00  0.00     0.271 A 
ATOM     29  Cl  UNL     1      26.096 -35.176  19.986  1.00  0.00    -0.082 Cl
BRANCH  28  30
ATOM     30  N   UNL     1      22.204 -37.979  21.511  1.00  0.00     0.062 N 
ATOM     31  O   UNL     1      21.049 -38.027  22.004  1.00  0.00    -0.258 OA
ATOM     32  O   UNL     1      22.652 -38.863  20.738  1.00  0.00    -0.258 OA
ENDBRANCH  28  30
ENDBRANCH   6  23
TORSDOF 5
ENDMDL
MODEL 9
REMARK VINA RESULT:    -4.579      2.463      4.004
REMARK INTER + INTRA:          -6.739
REMARK INTER:                  -6.027
REMARK INTRA:                  -0.712
REMARK UNBOUND:                -0.822
REMARK SMILES COc1ccccc1-c1noc(C)c1C(=O)N1CCN(c2ccc([N+](=O)[O-])cc2Cl)CC1
REMARK SMILES IDX 15 1 19 2 31 3 18 4 32 5 20 6 17 7 16 8 14 9 9 10 10 11
REMARK SMILES IDX 12 12 11 13 13 14 8 15 6 16 5 17 7 18 4 19 3 20 2 21 1 22
REMARK SMILES IDX 21 23 22 24 29 25 23 26 28 27 24 28 30 29 25 30 26 31 27 32
REMARK H PARENT
ROOT
ATOM      1  C   UNL     1      23.975 -37.249  19.667  1.00  0.00     0.259 C 
ATOM      2  C   UNL     1      25.574 -34.411  21.399  1.00  0.00     0.138 C 
ATOM      3  C   UNL     1      23.837 -35.454  22.834  1.00  0.00     0.138 C 
ATOM      4  C   UNL     1      25.690 -35.722  20.616  1.00  0.00     0.141 C 
ATOM      5  C   UNL     1      24.093 -36.797  22.155  1.00  0.00     0.141 C 
ATOM      6  N   UNL     1      25.015 -34.583  22.750  1.00  0.00    -0.367 N 
ATOM      7  N   UNL     1      24.544 -36.617  20.773  1.00  0.00    -0.335 N 
ATOM      8  O   UNL     1      23.026 -38.023  19.718  1.00  0.00    -0.269 OA
ENDROOT
BRANCH   1   9
ATOM      9  C   UNL     1      24.512 -37.004  18.325  1.00  0.00     0.110 A 
ATOM     10  C   UNL     1      25.519 -37.666  17.597  1.00  0.00     0.130 A 
ATOM     11  N   UNL     1      25.711 -37.118  16.394  1.00  0.00    -0.079 NA
ATOM     12  C   UNL     1      24.109 -35.999  17.488  1.00  0.00     0.147 A 
ATOM     13  O   UNL     1      24.812 -36.055  16.327  1.00  0.00    -0.360 OA
ATOM     14  C   UNL     1      23.108 -34.930  17.591  1.00  0.00     0.092 C 
BRANCH  10  15
ATOM     15  C   UNL     1      26.295 -38.811  18.005  1.00  0.00     0.047 A 
ATOM     16  C   UNL     1      27.868 -39.792  19.554  1.00  0.00     0.001 A 
ATOM     17  C   UNL     1      27.831 -40.988  18.840  1.00  0.00     0.004 A 
ATOM     18  C   UNL     1      27.103 -38.705  19.137  1.00  0.00     0.014 A 
ATOM     19  C   UNL     1      27.028 -41.100  17.705  1.00  0.00     0.047 A 
ATOM     20  C   UNL     1      26.256 -40.012  17.285  1.00  0.00     0.128 A 
BRANCH  20  21
ATOM     21  O   UNL     1      25.477 -40.161  16.168  1.00  0.00    -0.496 OA
ATOM     22  C   UNL     1      26.070 -40.816  15.047  1.00  0.00     0.278 C 
ENDBRANCH  20  21
ENDBRANCH  10  15
ENDBRANCH   1   9
BRANCH   6  23
ATOM     23  C   UNL     1      25.112 -33.492  23.627  1.00  0.00     0.056 A 
ATOM     24  C   UNL     1      23.927 -32.990  24.173  1.00  0.00     0.034 A 
ATOM     25  C   UNL     1      26.329 -32.889  23.963  1.00  0.00     0.071 A 
ATOM     26  C   UNL     1      23.953 -31.904  25.047  1.00  0.00     0.088 A 
ATOM     27  C   UNL     1      26.356 -31.807  24.832  1.00  0.00     0.108 A 
ATOM     28  C   UNL     1      25.175 -31.315  25.370  1.00  0.00     0.271 A 
ATOM     29  Cl  UNL     1      27.859 -33.413  23.368  1.00  0.00    -0.082 Cl
BRANCH  28  30
ATOM     30  N   UNL     1      25.253 -30.214  26.251  1.00  0.00     0.062 N 
ATOM     31  O   UNL     1      26.254 -30.095  27.002  1.00  0.00    -0.258 OA
ATOM     32  O   UNL     1      24.307 -29.388  26.242  1.00  0.00    -0.258 OA
ENDBRANCH  28  30
ENDBRANCH   6  23
TORSDOF 5
ENDMDL
