REMARK SMILES CO[C@H]1OC(OC(=O)c2cc(O)c(O)c(O)c2)[C@H](O)[C@@H](O)[C@@H]1O
REMARK SMILES IDX 7 1 8 2 6 3 5 4 3 5 22 6 4 7 20 8 18 9 2 10 1 11 23 12 21 14
REMARK SMILES IDX 19 16 9 18 17 19 10 20 15 21 11 22 13 23 16 24 12 26 14 28
REMARK H PARENT 23 13 21 15 19 17 16 25 12 27 14 29
ROOT
ATOM      1  C   UNL     1       1.013  -1.619  -0.263  1.00  0.00     0.340 C 
ATOM      2  O   UNL     1       1.116  -2.769  -0.658  1.00  0.00    -0.246 OA
ENDROOT
BRANCH   1   3
ATOM      3  O   UNL     1      -0.135  -0.940  -0.033  1.00  0.00    -0.429 OA
BRANCH   3   4
ATOM      4  C   UNL     1      -1.345  -1.615  -0.412  1.00  0.00     0.345 C 
ATOM      5  C   UNL     1      -2.696  -0.018   0.732  1.00  0.00     0.285 C 
ATOM      6  C   UNL     1      -3.248   0.555  -0.585  1.00  0.00     0.202 C 
ATOM      7  O   UNL     1      -2.357  -1.393   0.584  1.00  0.00    -0.308 OA
ATOM      8  C   UNL     1      -2.232   0.353  -1.703  1.00  0.00     0.183 C 
ATOM      9  C   UNL     1      -1.830  -1.119  -1.791  1.00  0.00     0.215 C 
BRANCH   5  10
ATOM     10  O   UNL     1      -3.735   0.146   1.710  1.00  0.00    -0.353 OA
ATOM     11  C   UNL     1      -3.299  -0.229   3.011  1.00  0.00     0.198 C 
ENDBRANCH   5  10
BRANCH   6  12
ATOM     12  O   UNL     1      -3.540   1.957  -0.470  1.00  0.00    -0.385 OA
ATOM     13  H   UNL     1      -4.097   2.037   0.331  1.00  0.00     0.211 HD
ENDBRANCH   6  12
BRANCH   8  14
ATOM     14  O   UNL     1      -2.793   0.762  -2.963  1.00  0.00    -0.387 OA
ATOM     15  H   UNL     1      -3.185   1.643  -2.791  1.00  0.00     0.211 HD
ENDBRANCH   8  14
BRANCH   9  16
ATOM     16  O   UNL     1      -0.835  -1.269  -2.810  1.00  0.00    -0.384 OA
ATOM     17  H   UNL     1      -1.184  -0.780  -3.582  1.00  0.00     0.211 HD
ENDBRANCH   9  16
ENDBRANCH   3   4
ENDBRANCH   1   3
BRANCH   1  18
ATOM     18  C   UNL     1       2.191  -0.764   0.043  1.00  0.00     0.067 A 
ATOM     19  C   UNL     1       3.467  -1.278  -0.253  1.00  0.00     0.066 A 
ATOM     20  C   UNL     1       2.062   0.513   0.612  1.00  0.00     0.066 A 
ATOM     21  C   UNL     1       4.596  -0.513   0.019  1.00  0.00     0.162 A 
ATOM     22  C   UNL     1       3.204   1.258   0.876  1.00  0.00     0.162 A 
ATOM     23  C   UNL     1       4.463   0.751   0.582  1.00  0.00     0.200 A 
BRANCH  21  24
ATOM     24  O   UNL     1       5.859  -0.960  -0.250  1.00  0.00    -0.504 OA
ATOM     25  H   UNL     1       5.793  -1.848  -0.647  1.00  0.00     0.293 HD
ENDBRANCH  21  24
BRANCH  22  26
ATOM     26  O   UNL     1       3.079   2.498   1.431  1.00  0.00    -0.504 OA
ATOM     27  H   UNL     1       3.998   2.825   1.518  1.00  0.00     0.293 HD
ENDBRANCH  22  26
BRANCH  23  28
ATOM     28  O   UNL     1       5.567   1.512   0.855  1.00  0.00    -0.502 OA
ATOM     29  H   UNL     1       6.321   0.957   0.566  1.00  0.00     0.293 HD
ENDBRANCH  23  28
ENDBRANCH   1  18
TORSDOF 10
