REMARK SMILES O=C([O-])C1=CO[C@@H](O[C@@H]2O[C@H](CO)[C@@H](O)[C@H](O)[C@H]2O)[C@@H]2[C@@H](CO)CC[C@H]12
REMARK SMILES IDX 8 1 7 2 24 3 25 4 21 5 26 6 20 7 4 8 5 9 6 10 22 11 23 12
REMARK SMILES IDX 2 14 1 15 3 16 9 17 18 18 10 19 16 20 11 21 14 22 19 23
REMARK SMILES IDX 17 25 12 27 13 28 15 30
REMARK H PARENT 23 13 19 24 17 26 13 29 15 31
ROOT
ATOM      1  O   UNL     1       0.139  -0.533  -0.316  1.00  0.00    -0.310 OA
ENDROOT
BRANCH   1   2
ATOM      2  C   UNL     1      -0.681   0.594   0.028  1.00  0.00     0.313 C 
ATOM      3  C   UNL     1      -4.241   1.071  -1.204  1.00  0.00     0.007 C 
ATOM      4  C   UNL     1      -4.265  -0.369  -0.696  1.00  0.00     0.009 C 
ATOM      5  C   UNL     1      -2.959   1.662  -0.627  1.00  0.00     0.024 C 
ATOM      6  C   UNL     1      -2.815  -0.731  -0.309  1.00  0.00     0.034 C 
ATOM      7  C   UNL     1      -1.980   0.484  -0.773  1.00  0.00     0.071 C 
ATOM      8  C   UNL     1      -2.651  -0.973   1.169  1.00  0.00     0.013 C 
ATOM      9  C   UNL     1      -1.790  -0.270   1.916  1.00  0.00     0.196 C 
ATOM     10  O   UNL     1      -0.917   0.676   1.442  1.00  0.00    -0.472 OA
BRANCH   5  11
ATOM     11  C   UNL     1      -2.533   2.932  -1.351  1.00  0.00     0.160 C 
BRANCH  11  12
ATOM     12  O   UNL     1      -1.424   3.541  -0.702  1.00  0.00    -0.396 OA
ATOM     13  H   UNL     1      -1.662   3.646   0.237  1.00  0.00     0.210 HD
ENDBRANCH  11  12
ENDBRANCH   5  11
BRANCH   8  14
ATOM     14  C   UNL     1      -3.499  -2.072   1.841  1.00  0.00     0.071 C 
ATOM     15  O   UNL     1      -3.694  -1.934   3.081  1.00  0.00    -0.545 OA
ATOM     16  O   UNL     1      -3.892  -2.985   1.060  1.00  0.00    -0.545 OA
ENDBRANCH   8  14
ENDBRANCH   1   2
BRANCH   1  17
ATOM     17  C   UNL     1       1.432  -0.465   0.274  1.00  0.00     0.286 C 
ATOM     18  C   UNL     1       1.991  -1.899   0.242  1.00  0.00     0.202 C 
ATOM     19  O   UNL     1       2.262   0.418  -0.486  1.00  0.00    -0.341 OA
ATOM     20  C   UNL     1       3.428  -1.900   0.751  1.00  0.00     0.179 C 
ATOM     21  C   UNL     1       3.604   0.487   0.030  1.00  0.00     0.178 C 
ATOM     22  C   UNL     1       4.276  -0.890  -0.023  1.00  0.00     0.177 C 
BRANCH  18  23
ATOM     23  O   UNL     1       1.230  -2.799   1.061  1.00  0.00    -0.385 OA
ATOM     24  H   UNL     1       0.284  -2.607   0.876  1.00  0.00     0.211 HD
ENDBRANCH  18  23
BRANCH  20  25
ATOM     25  O   UNL     1       4.011  -3.207   0.611  1.00  0.00    -0.387 OA
ATOM     26  H   UNL     1       3.315  -3.817   0.938  1.00  0.00     0.211 HD
ENDBRANCH  20  25
BRANCH  21  27
ATOM     27  C   UNL     1       4.367   1.511  -0.817  1.00  0.00     0.191 C 
BRANCH  27  28
ATOM     28  O   UNL     1       3.703   2.776  -0.761  1.00  0.00    -0.394 OA
ATOM     29  H   UNL     1       2.757   2.582  -0.918  1.00  0.00     0.210 HD
ENDBRANCH  27  28
ENDBRANCH  21  27
BRANCH  22  30
ATOM     30  O   UNL     1       5.591  -0.854   0.538  1.00  0.00    -0.387 OA
ATOM     31  H   UNL     1       5.835  -1.795   0.663  1.00  0.00     0.211 HD
ENDBRANCH  22  30
ENDBRANCH   1  17
TORSDOF 10
