REMARK SMILES CCCCCCCC/C=C\CCCCCCCC(=O)OC[C@@H](O)CO[C@@H]1O[C@H](CO[C@H]2O[C@H](CO)[C@H](O)[C@H](O)[C@H]2O)[C@H](O)[C@H](O)[C@H]1O
REMARK SMILES IDX 16 1 15 2 14 3 13 4 12 5 11 6 10 7 9 8 8 9 7 10 6 11 5 12
REMARK SMILES IDX 4 13 3 14 2 15 1 16 17 17 18 18 19 19 20 20 21 21 22 22
REMARK SMILES IDX 24 23 25 24 26 25 46 26 27 27 44 28 28 29 42 30 47 31 45 33
REMARK SMILES IDX 29 35 30 36 31 37 40 38 32 39 38 40 33 41 36 42 41 43 39 45
REMARK SMILES IDX 34 47 35 48 37 50 43 52 23 54
REMARK H PARENT 47 32 45 34 41 44 39 46 35 49 37 51 43 53 23 55
ROOT
ATOM      1  C   UNL     1      -2.773   4.349  -0.441  1.00  0.00     0.012 C 
ENDROOT
BRANCH   1   2
ATOM      2  C   UNL     1      -1.309   4.694  -0.721  1.00  0.00     0.001 C 
BRANCH   2   3
ATOM      3  C   UNL     1      -0.364   4.011   0.269  1.00  0.00     0.000 C 
BRANCH   3   4
ATOM      4  C   UNL     1       1.091   4.381  -0.024  1.00  0.00     0.000 C 
BRANCH   4   5
ATOM      5  C   UNL     1       2.057   3.694   0.943  1.00  0.00     0.004 C 
BRANCH   5   6
ATOM      6  C   UNL     1       3.505   4.074   0.631  1.00  0.00     0.027 C 
BRANCH   6   7
ATOM      7  C   UNL     1       4.468   3.400   1.566  1.00  0.00    -0.031 C 
ATOM      8  C   UNL     1       5.182   2.288   1.325  1.00  0.00    -0.031 C 
BRANCH   8   9
ATOM      9  C   UNL     1       5.131   1.429   0.092  1.00  0.00     0.027 C 
BRANCH   9  10
ATOM     10  C   UNL     1       6.496   1.339  -0.594  1.00  0.00     0.004 C 
BRANCH  10  11
ATOM     11  C   UNL     1       6.459   0.577  -1.924  1.00  0.00     0.000 C 
BRANCH  11  12
ATOM     12  C   UNL     1       5.931  -0.854  -1.792  1.00  0.00     0.000 C 
BRANCH  12  13
ATOM     13  C   UNL     1       6.049  -1.625  -3.108  1.00  0.00    -0.000 C 
BRANCH  13  14
ATOM     14  C   UNL     1       5.309  -2.966  -3.086  1.00  0.00    -0.000 C 
BRANCH  14  15
ATOM     15  C   UNL     1       5.861  -3.953  -2.057  1.00  0.00    -0.003 C 
ATOM     16  C   UNL     1       5.142  -5.291  -2.133  1.00  0.00     0.004 C 
ENDBRANCH  14  15
ENDBRANCH  13  14
ENDBRANCH  12  13
ENDBRANCH  11  12
ENDBRANCH  10  11
ENDBRANCH   9  10
ENDBRANCH   8   9
ENDBRANCH   6   7
ENDBRANCH   5   6
ENDBRANCH   4   5
ENDBRANCH   3   4
ENDBRANCH   2   3
ENDBRANCH   1   2
BRANCH   1  17
ATOM     17  C   UNL     1      -3.692   5.023  -1.456  1.00  0.00     0.123 C 
BRANCH  17  18
ATOM     18  C   UNL     1      -5.149   4.775  -1.159  1.00  0.00     0.305 C 
ATOM     19  O   UNL     1      -5.960   5.660  -0.924  1.00  0.00    -0.252 OA
BRANCH  18  20
ATOM     20  O   UNL     1      -5.435   3.448  -1.223  1.00  0.00    -0.463 OA
BRANCH  20  21
ATOM     21  C   UNL     1      -6.834   3.136  -1.106  1.00  0.00     0.267 C 
BRANCH  21  22
ATOM     22  C   UNL     1      -7.036   1.620  -1.093  1.00  0.00     0.178 C 
BRANCH  22  23
ATOM     23  C   UNL     1      -6.249   0.937   0.030  1.00  0.00     0.199 C 
BRANCH  23  24
ATOM     24  O   UNL     1      -6.550  -0.463  -0.024  1.00  0.00    -0.347 OA
BRANCH  24  25
ATOM     25  C   UNL     1      -6.041  -1.172   1.113  1.00  0.00     0.282 C 
ATOM     26  C   UNL     1      -6.552  -2.628   1.038  1.00  0.00     0.202 C 
ATOM     27  O   UNL     1      -4.612  -1.110   1.112  1.00  0.00    -0.341 OA
ATOM     28  C   UNL     1      -5.878  -3.493   2.108  1.00  0.00     0.179 C 
ATOM     29  C   UNL     1      -4.023  -1.828   2.208  1.00  0.00     0.178 C 
ATOM     30  C   UNL     1      -4.360  -3.324   2.084  1.00  0.00     0.177 C 
BRANCH  26  31
ATOM     31  O   UNL     1      -7.975  -2.689   1.246  1.00  0.00    -0.385 OA
ATOM     32  H   UNL     1      -8.187  -3.642   1.287  1.00  0.00     0.211 HD
ENDBRANCH  26  31
BRANCH  28  33
ATOM     33  O   UNL     1      -6.225  -4.868   1.875  1.00  0.00    -0.387 OA
ATOM     34  H   UNL     1      -5.583  -5.180   1.201  1.00  0.00     0.211 HD
ENDBRANCH  28  33
BRANCH  29  35
ATOM     35  C   UNL     1      -2.512  -1.550   2.208  1.00  0.00     0.198 C 
BRANCH  35  36
ATOM     36  O   UNL     1      -1.872  -2.197   1.099  1.00  0.00    -0.347 OA
BRANCH  36  37
ATOM     37  C   UNL     1      -0.485  -1.826   1.001  1.00  0.00     0.282 C 
ATOM     38  C   UNL     1       0.091  -2.526  -0.248  1.00  0.00     0.202 C 
ATOM     39  O   UNL     1       0.200  -2.253   2.181  1.00  0.00    -0.341 OA
ATOM     40  C   UNL     1       1.582  -2.228  -0.371  1.00  0.00     0.179 C 
ATOM     41  C   UNL     1       1.605  -1.968   2.174  1.00  0.00     0.178 C 
ATOM     42  C   UNL     1       2.319  -2.562   0.934  1.00  0.00     0.177 C 
BRANCH  38  43
ATOM     43  O   UNL     1      -0.096  -3.949  -0.160  1.00  0.00    -0.385 OA
ATOM     44  H   UNL     1      -0.961  -4.084   0.273  1.00  0.00     0.211 HD
ENDBRANCH  38  43
BRANCH  40  45
ATOM     45  O   UNL     1       1.788  -0.845  -0.694  1.00  0.00    -0.387 OA
ATOM     46  H   UNL     1       2.762  -0.743  -0.697  1.00  0.00     0.211 HD
ENDBRANCH  40  45
BRANCH  41  47
ATOM     47  C   UNL     1       1.878  -0.476   2.433  1.00  0.00     0.191 C 
BRANCH  47  48
ATOM     48  O   UNL     1       3.271  -0.260   2.640  1.00  0.00    -0.394 OA
ATOM     49  H   UNL     1       3.391   0.704   2.751  1.00  0.00     0.210 HD
ENDBRANCH  47  48
ENDBRANCH  41  47
BRANCH  42  50
ATOM     50  O   UNL     1       3.684  -2.140   0.799  1.00  0.00    -0.387 OA
ATOM     51  H   UNL     1       3.909  -1.603   1.590  1.00  0.00     0.211 HD
ENDBRANCH  42  50
ENDBRANCH  36  37
ENDBRANCH  35  36
ENDBRANCH  29  35
BRANCH  30  52
ATOM     52  O   UNL     1      -3.899  -3.899   0.848  1.00  0.00    -0.387 OA
ATOM     53  H   UNL     1      -3.179  -3.317   0.524  1.00  0.00     0.211 HD
ENDBRANCH  30  52
ENDBRANCH  24  25
ENDBRANCH  23  24
ENDBRANCH  22  23
BRANCH  22  54
ATOM     54  O   UNL     1      -6.636   1.062  -2.354  1.00  0.00    -0.387 OA
ATOM     55  H   UNL     1      -6.602   0.097  -2.204  1.00  0.00     0.211 HD
ENDBRANCH  22  54
ENDBRANCH  21  22
ENDBRANCH  20  21
ENDBRANCH  18  20
ENDBRANCH  17  18
ENDBRANCH   1  17
TORSDOF 33
