REMARK SMILES O=C([O-])/C=C/c1ccc(O)cc1
REMARK SMILES IDX 7 1 8 2 9 3 11 4 12 5 6 6 5 7 4 8 2 9 1 10 3 11 10 12
REMARK H PARENT 10 13
ROOT
ATOM      1  C   UNL     1       0.369  -1.124   0.409  1.00  0.00     0.012 A 
ATOM      2  C   UNL     1       1.737  -1.354   0.578  1.00  0.00     0.047 A 
ATOM      3  C   UNL     1       2.641  -0.324   0.351  1.00  0.00     0.115 A 
ATOM      4  C   UNL     1       2.200   0.934  -0.047  1.00  0.00     0.047 A 
ATOM      5  C   UNL     1       0.830   1.159  -0.215  1.00  0.00     0.012 A 
ATOM      6  C   UNL     1      -0.101   0.138   0.023  1.00  0.00    -0.025 A 
ENDROOT
BRANCH   6   7
ATOM      7  C   UNL     1      -1.526   0.420  -0.197  1.00  0.00     0.010 C 
ATOM      8  C   UNL     1      -2.539  -0.165   0.461  1.00  0.00     0.025 C 
BRANCH   8   9
ATOM      9  C   UNL     1      -4.003   0.187   0.188  1.00  0.00     0.064 C 
ATOM     10  O   UNL     1      -4.823  -0.488   0.873  1.00  0.00    -0.545 OA
ATOM     11  O   UNL     1      -4.216   1.089  -0.668  1.00  0.00    -0.545 OA
ENDBRANCH   8   9
ENDBRANCH   6   7
BRANCH   3  12
ATOM     12  O   UNL     1       3.968  -0.586   0.526  1.00  0.00    -0.508 OA
ATOM     13  H   UNL     1       4.460   0.231   0.343  1.00  0.00     0.293 HD
ENDBRANCH   3  12
TORSDOF 3
