REMARK SMILES O=C([O-])/C=C/c1ccc(O)c(O)c1
REMARK SMILES IDX 7 1 8 2 9 3 11 4 13 5 6 6 5 7 4 8 2 9 1 10 3 11 10 12 12 14
REMARK H PARENT 10 13 12 15
ROOT
ATOM      1  C   UNL     1       0.624  -1.382  -0.085  1.00  0.00     0.012 A 
ATOM      2  C   UNL     1       1.958  -1.203   0.295  1.00  0.00     0.051 A 
ATOM      3  C   UNL     1       2.427   0.085   0.517  1.00  0.00     0.157 A 
ATOM      4  C   UNL     1       1.581   1.180   0.358  1.00  0.00     0.157 A 
ATOM      5  C   UNL     1       0.254   1.007  -0.019  1.00  0.00     0.058 A 
ATOM      6  C   UNL     1      -0.243  -0.285  -0.235  1.00  0.00    -0.022 A 
ENDROOT
BRANCH   6   7
ATOM      7  C   UNL     1      -1.624  -0.544  -0.664  1.00  0.00     0.010 C 
ATOM      8  C   UNL     1      -2.690   0.203  -0.335  1.00  0.00     0.025 C 
BRANCH   8   9
ATOM      9  C   UNL     1      -4.104  -0.147  -0.803  1.00  0.00     0.064 C 
ATOM     10  O   UNL     1      -4.225  -1.196  -1.495  1.00  0.00    -0.545 OA
ATOM     11  O   UNL     1      -4.984   0.677  -0.424  1.00  0.00    -0.545 OA
ENDBRANCH   8   9
ENDBRANCH   6   7
BRANCH   3  12
ATOM     12  O   UNL     1       3.722   0.326   0.891  1.00  0.00    -0.504 OA
ATOM     13  H   UNL     1       4.167  -0.535   0.966  1.00  0.00     0.293 HD
ENDBRANCH   3  12
BRANCH   4  14
ATOM     14  O   UNL     1       2.063   2.442   0.570  1.00  0.00    -0.504 OA
ATOM     15  H   UNL     1       2.995   2.301   0.822  1.00  0.00     0.293 HD
ENDBRANCH   4  14
TORSDOF 4
