REMARK SMILES O=C1O[C@H]([C@@H](O)CO)C([O-])=C1O
REMARK SMILES IDX 5 1 7 2 8 3 4 5 9 6 3 7 11 8 2 9 1 10 10 11 12 12 6 14
REMARK H PARENT 8 4 12 13 6 15
ROOT
ATOM      1  C   UNL     1      -1.260  -0.371   0.575  1.00  0.00     0.184 C 
ENDROOT
BRANCH   1   2
ATOM      2  C   UNL     1      -1.535   0.111  -0.854  1.00  0.00     0.192 C 
BRANCH   2   3
ATOM      3  O   UNL     1      -2.945   0.349  -0.997  1.00  0.00    -0.394 OA
ATOM      4  H   UNL     1      -3.181   0.809  -0.164  1.00  0.00     0.210 HD
ENDBRANCH   2   3
ENDBRANCH   1   2
BRANCH   1   5
ATOM      5  C   UNL     1       0.230  -0.671   0.866  1.00  0.00     0.227 C 
ATOM      6  C   UNL     1       1.174   0.483   0.647  1.00  0.00    -0.037 C 
ATOM      7  O   UNL     1       0.706  -1.715  -0.003  1.00  0.00    -0.450 OA
ATOM      8  C   UNL     1       2.096   0.097  -0.234  1.00  0.00     0.193 C 
ATOM      9  C   UNL     1       1.828  -1.286  -0.655  1.00  0.00     0.373 C 
ATOM     10  O   UNL     1       2.467  -1.954  -1.452  1.00  0.00    -0.243 OA
ATOM     11  O   UNL     1       0.963   1.551   1.282  1.00  0.00    -0.870 OA
BRANCH   8  12
ATOM     12  O   UNL     1       3.117   0.902  -0.664  1.00  0.00    -0.502 OA
ATOM     13  H   UNL     1       2.930   1.714  -0.144  1.00  0.00     0.293 HD
ENDBRANCH   8  12
ENDBRANCH   1   5
BRANCH   1  14
ATOM     14  O   UNL     1      -1.782   0.625   1.483  1.00  0.00    -0.387 OA
ATOM     15  H   UNL     1      -1.009   1.240   1.605  1.00  0.00     0.211 HD
ENDBRANCH   1  14
TORSDOF 5
