REMARK SMILES O=C([O-])[C@H](O)Cc1ccc(O)c(O)c1
REMARK SMILES IDX 6 1 7 2 8 3 9 4 10 5 14 6 12 7 11 8 13 10 4 12 2 13 1 14
REMARK SMILES IDX 3 15 5 16
REMARK H PARENT 11 9 13 11 5 17
ROOT
ATOM      1  C   UNL     1      -0.952  -1.091   0.646  1.00  0.00     0.073 C 
ENDROOT
BRANCH   1   2
ATOM      2  C   UNL     1       0.268  -0.578  -0.093  1.00  0.00    -0.041 A 
ATOM      3  C   UNL     1       0.858  -1.334  -1.121  1.00  0.00     0.008 A 
ATOM      4  C   UNL     1       1.979  -0.853  -1.803  1.00  0.00     0.050 A 
ATOM      5  C   UNL     1       2.498   0.387  -1.464  1.00  0.00     0.157 A 
ATOM      6  C   UNL     1       0.808   0.674   0.234  1.00  0.00     0.054 A 
ATOM      7  C   UNL     1       1.914   1.150  -0.457  1.00  0.00     0.157 A 
BRANCH   5   8
ATOM      8  O   UNL     1       3.590   0.869  -2.131  1.00  0.00    -0.504 OA
ATOM      9  H   UNL     1       3.738   1.744  -1.720  1.00  0.00     0.293 HD
ENDBRANCH   5   8
BRANCH   7  10
ATOM     10  O   UNL     1       2.453   2.378  -0.178  1.00  0.00    -0.504 OA
ATOM     11  H   UNL     1       1.854   2.795   0.469  1.00  0.00     0.293 HD
ENDBRANCH   7  10
ENDBRANCH   1   2
BRANCH   1  12
ATOM     12  C   UNL     1      -2.248  -0.414   0.200  1.00  0.00     0.164 C 
BRANCH  12  13
ATOM     13  C   UNL     1      -2.790   0.552   1.299  1.00  0.00     0.070 C 
ATOM     14  O   UNL     1      -3.986   0.290   1.645  1.00  0.00    -0.547 OA
ATOM     15  O   UNL     1      -2.013   1.460   1.701  1.00  0.00    -0.547 OA
ENDBRANCH  12  13
BRANCH  12  16
ATOM     16  O   UNL     1      -3.251  -1.439  -0.059  1.00  0.00    -0.387 OA
ATOM     17  H   UNL     1      -4.001  -1.127   0.509  1.00  0.00     0.211 HD
ENDBRANCH  12  16
ENDBRANCH   1  12
TORSDOF 6
