REMARK SMILES C[C@@H]1O[C@@H](OC[C@H]2O[C@@H](OCC(O)c3ccc(O)c(O)c3)[C@H](O)[C@@H](O)[C@@H]2O)[C@H](O)[C@H](O)[C@H]1O
REMARK SMILES IDX 7 1 26 2 24 3 22 4 9 5 8 6 6 7 5 8 4 9 2 10 32 11 3 12 30 13
REMARK SMILES IDX 28 14 1 15 33 16 31 18 29 20 27 22 25 24 10 26 11 27 12 28
REMARK SMILES IDX 14 29 21 30 15 31 19 32 16 33 17 34 20 35 18 37 13 39 23 41
REMARK H PARENT 33 17 31 19 29 21 27 23 25 25 20 36 18 38 13 40 23 42
ROOT
ATOM      1  C   UNL     1      -0.991  -2.496  -0.055  1.00  0.00     0.178 C 
ATOM      2  C   UNL     1      -1.352  -3.706   0.819  1.00  0.00     0.177 C 
ATOM      3  C   UNL     1      -0.246  -4.756   0.733  1.00  0.00     0.179 C 
ATOM      4  C   UNL     1       1.104  -4.133   1.066  1.00  0.00     0.202 C 
ATOM      5  C   UNL     1       1.346  -2.908   0.164  1.00  0.00     0.282 C 
ATOM      6  O   UNL     1       0.292  -1.958   0.333  1.00  0.00    -0.341 OA
ENDROOT
BRANCH   1   7
ATOM      7  C   UNL     1      -2.056  -1.396   0.082  1.00  0.00     0.198 C 
BRANCH   7   8
ATOM      8  O   UNL     1      -1.752  -0.336  -0.833  1.00  0.00    -0.347 OA
BRANCH   8   9
ATOM      9  C   UNL     1      -2.832   0.586  -1.000  1.00  0.00     0.281 C 
ATOM     10  C   UNL     1      -1.512   2.109  -2.298  1.00  0.00     0.150 C 
ATOM     11  C   UNL     1      -1.576   3.197  -1.213  1.00  0.00     0.174 C 
ATOM     12  O   UNL     1      -2.670   1.274  -2.251  1.00  0.00    -0.344 OA
ATOM     13  C   UNL     1      -1.744   2.535   0.162  1.00  0.00     0.179 C 
ATOM     14  C   UNL     1      -2.941   1.584   0.172  1.00  0.00     0.202 C 
ATOM     15  C   UNL     1      -1.446   2.710  -3.698  1.00  0.00     0.041 C 
BRANCH  11  16
ATOM     16  O   UNL     1      -0.390   4.017  -1.205  1.00  0.00    -0.388 OA
ATOM     17  H   UNL     1      -0.473   4.606  -1.980  1.00  0.00     0.211 HD
ENDBRANCH  11  16
BRANCH  13  18
ATOM     18  O   UNL     1      -1.951   3.547   1.164  1.00  0.00    -0.387 OA
ATOM     19  H   UNL     1      -1.113   4.050   1.208  1.00  0.00     0.211 HD
ENDBRANCH  13  18
BRANCH  14  20
ATOM     20  O   UNL     1      -4.152   2.356   0.091  1.00  0.00    -0.385 OA
ATOM     21  H   UNL     1      -4.018   3.092   0.724  1.00  0.00     0.211 HD
ENDBRANCH  14  20
ENDBRANCH   8   9
ENDBRANCH   7   8
ENDBRANCH   1   7
BRANCH   2  22
ATOM     22  O   UNL     1      -2.587  -4.294   0.406  1.00  0.00    -0.387 OA
ATOM     23  H   UNL     1      -2.639  -5.147   0.885  1.00  0.00     0.211 HD
ENDBRANCH   2  22
BRANCH   3  24
ATOM     24  O   UNL     1      -0.544  -5.825   1.644  1.00  0.00    -0.387 OA
ATOM     25  H   UNL     1       0.271  -6.367   1.676  1.00  0.00     0.211 HD
ENDBRANCH   3  24
BRANCH   5  26
ATOM     26  O   UNL     1       2.594  -2.350   0.587  1.00  0.00    -0.347 OA
BRANCH  26  27
ATOM     27  C   UNL     1       3.295  -1.609  -0.419  1.00  0.00     0.200 C 
BRANCH  27  28
ATOM     28  C   UNL     1       2.734  -0.207  -0.742  1.00  0.00     0.170 C 
BRANCH  28  29
ATOM     29  C   UNL     1       2.587   0.789   0.394  1.00  0.00    -0.013 A 
ATOM     30  C   UNL     1       2.006   2.041   0.112  1.00  0.00     0.056 A 
ATOM     31  C   UNL     1       3.030   0.544   1.705  1.00  0.00     0.010 A 
ATOM     32  C   UNL     1       1.845   2.988   1.117  1.00  0.00     0.157 A 
ATOM     33  C   UNL     1       2.885   1.509   2.708  1.00  0.00     0.050 A 
ATOM     34  C   UNL     1       2.292   2.724   2.405  1.00  0.00     0.157 A 
BRANCH  32  35
ATOM     35  O   UNL     1       1.225   4.185   0.883  1.00  0.00    -0.504 OA
ATOM     36  H   UNL     1       0.840   4.149  -0.023  1.00  0.00     0.293 HD
ENDBRANCH  32  35
BRANCH  34  37
ATOM     37  O   UNL     1       2.143   3.659   3.388  1.00  0.00    -0.504 OA
ATOM     38  H   UNL     1       1.733   4.424   2.937  1.00  0.00     0.293 HD
ENDBRANCH  34  37
ENDBRANCH  28  29
BRANCH  28  39
ATOM     39  O   UNL     1       1.490  -0.334  -1.437  1.00  0.00    -0.386 OA
ATOM     40  H   UNL     1       0.813  -0.531  -0.754  1.00  0.00     0.211 HD
ENDBRANCH  28  39
ENDBRANCH  27  28
ENDBRANCH  26  27
ENDBRANCH   5  26
BRANCH   4  41
ATOM     41  O   UNL     1       2.128  -5.126   0.893  1.00  0.00    -0.385 OA
ATOM     42  H   UNL     1       2.971  -4.653   1.041  1.00  0.00     0.211 HD
ENDBRANCH   4  41
TORSDOF 16
