MODEL 1
REMARK VINA RESULT:    -5.498      0.000      0.000
REMARK INTER + INTRA:          -8.533
REMARK INTER:                  -7.748
REMARK INTRA:                  -0.785
REMARK UNBOUND:                -0.785
REMARK SMILES CO[C@H]1OC(OC(=O)c2cc(O)c(O)c(O)c2)[C@H](O)[C@@H](O)[C@@H]1O
REMARK SMILES IDX 7 1 8 2 6 3 5 4 3 5 22 6 4 7 20 8 18 9 2 10 1 11 23 12 21 14
REMARK SMILES IDX 19 16 9 18 17 19 10 20 15 21 11 22 13 23 16 24 12 26 14 28
REMARK H PARENT 23 13 21 15 19 17 16 25 12 27 14 29
ROOT
ATOM      1  C   UNL     1      30.543  44.051 -51.330  1.00  0.00     0.340 C 
ATOM      2  O   UNL     1      31.448  44.866 -51.399  1.00  0.00    -0.246 OA
ENDROOT
BRANCH   1   3
ATOM      3  O   UNL     1      30.389  42.942 -52.092  1.00  0.00    -0.429 OA
BRANCH   3   4
ATOM      4  C   UNL     1      31.457  41.984 -52.020  1.00  0.00     0.345 C 
ATOM      5  C   UNL     1      30.042  40.221 -52.778  1.00  0.00     0.285 C 
ATOM      6  C   UNL     1      30.776  40.124 -54.127  1.00  0.00     0.202 C 
ATOM      7  O   UNL     1      30.920  40.678 -51.754  1.00  0.00    -0.308 OA
ATOM      8  C   UNL     1      31.385  41.476 -54.483  1.00  0.00     0.183 C 
ATOM      9  C   UNL     1      32.264  41.976 -53.337  1.00  0.00     0.215 C 
BRANCH   5  10
ATOM     10  O   UNL     1      29.563  38.900 -52.483  1.00  0.00    -0.353 OA
ATOM     11  C   UNL     1      29.842  38.525 -51.140  1.00  0.00     0.198 C 
ENDBRANCH   5  10
BRANCH   6  12
ATOM     12  O   UNL     1      29.889  39.722 -55.183  1.00  0.00    -0.385 OA
ATOM     13  H   UNL     1      30.408  39.827 -56.006  1.00  0.00     0.211 HD
ENDBRANCH   6  12
BRANCH   8  14
ATOM     14  O   UNL     1      32.186  41.361 -55.672  1.00  0.00    -0.387 OA
ATOM     15  H   UNL     1      31.739  40.678 -56.213  1.00  0.00     0.211 HD
ENDBRANCH   8  14
BRANCH   9  16
ATOM     16  O   UNL     1      32.776  43.270 -53.675  1.00  0.00    -0.384 OA
ATOM     17  H   UNL     1      31.989  43.847 -53.744  1.00  0.00     0.211 HD
ENDBRANCH   9  16
ENDBRANCH   3   4
ENDBRANCH   1   3
BRANCH   1  18
ATOM     18  C   UNL     1      29.432  44.162 -50.348  1.00  0.00     0.067 A 
ATOM     19  C   UNL     1      28.953  45.450 -50.045  1.00  0.00     0.066 A 
ATOM     20  C   UNL     1      28.866  43.038 -49.726  1.00  0.00     0.066 A 
ATOM     21  C   UNL     1      27.917  45.601 -49.130  1.00  0.00     0.162 A 
ATOM     22  C   UNL     1      27.833  43.213 -48.814  1.00  0.00     0.162 A 
ATOM     23  C   UNL     1      27.360  44.484 -48.517  1.00  0.00     0.200 A 
BRANCH  21  24
ATOM     24  O   UNL     1      27.410  46.826 -48.801  1.00  0.00    -0.504 OA
ATOM     25  H   UNL     1      27.361  46.888 -47.829  1.00  0.00     0.293 HD
ENDBRANCH  21  24
BRANCH  22  26
ATOM     26  O   UNL     1      27.285  42.121 -48.208  1.00  0.00    -0.504 OA
ATOM     27  H   UNL     1      27.991  41.783 -47.619  1.00  0.00     0.293 HD
ENDBRANCH  22  26
BRANCH  23  28
ATOM     28  O   UNL     1      26.340  44.620 -47.615  1.00  0.00    -0.502 OA
ATOM     29  H   UNL     1      26.083  45.564 -47.681  1.00  0.00     0.293 HD
ENDBRANCH  23  28
ENDBRANCH   1  18
TORSDOF 10
ENDMDL
MODEL 2
REMARK VINA RESULT:    -5.286      4.721      7.535
REMARK INTER + INTRA:          -8.233
REMARK INTER:                  -7.407
REMARK INTRA:                  -0.826
REMARK UNBOUND:                -0.785
REMARK SMILES CO[C@H]1OC(OC(=O)c2cc(O)c(O)c(O)c2)[C@H](O)[C@@H](O)[C@@H]1O
REMARK SMILES IDX 7 1 8 2 6 3 5 4 3 5 22 6 4 7 20 8 18 9 2 10 1 11 23 12 21 14
REMARK SMILES IDX 19 16 9 18 17 19 10 20 15 21 11 22 13 23 16 24 12 26 14 28
REMARK H PARENT 23 13 21 15 19 17 16 25 12 27 14 29
ROOT
ATOM      1  C   UNL     1      29.550  37.113 -50.074  1.00  0.00     0.340 C 
ATOM      2  O   UNL     1      28.574  36.830 -50.749  1.00  0.00    -0.246 OA
ENDROOT
BRANCH   1   3
ATOM      3  O   UNL     1      30.303  36.261 -49.339  1.00  0.00    -0.429 OA
BRANCH   3   4
ATOM      4  C   UNL     1      31.357  35.591 -50.049  1.00  0.00     0.345 C 
ATOM      5  C   UNL     1      32.447  34.974 -48.020  1.00  0.00     0.285 C 
ATOM      6  C   UNL     1      32.110  33.485 -48.215  1.00  0.00     0.202 C 
ATOM      7  O   UNL     1      32.568  35.635 -49.275  1.00  0.00    -0.308 OA
ATOM      8  C   UNL     1      30.834  33.348 -49.037  1.00  0.00     0.183 C 
ATOM      9  C   UNL     1      30.963  34.128 -50.345  1.00  0.00     0.215 C 
BRANCH   5  10
ATOM     10  O   UNL     1      33.691  35.015 -47.303  1.00  0.00    -0.353 OA
ATOM     11  C   UNL     1      34.762  34.482 -48.074  1.00  0.00     0.198 C 
ENDBRANCH   5  10
BRANCH   6  12
ATOM     12  O   UNL     1      31.926  32.816 -46.957  1.00  0.00    -0.385 OA
ATOM     13  H   UNL     1      32.811  32.469 -46.721  1.00  0.00     0.211 HD
ENDBRANCH   6  12
BRANCH   8  14
ATOM     14  O   UNL     1      30.585  31.964 -49.340  1.00  0.00    -0.387 OA
ATOM     15  H   UNL     1      31.316  31.475 -48.908  1.00  0.00     0.211 HD
ENDBRANCH   8  14
BRANCH   9  16
ATOM     16  O   UNL     1      29.731  34.028 -51.070  1.00  0.00    -0.384 OA
ATOM     17  H   UNL     1      29.265  34.870 -50.899  1.00  0.00     0.211 HD
ENDBRANCH   9  16
ENDBRANCH   3   4
ENDBRANCH   1   3
BRANCH   1  18
ATOM     18  C   UNL     1      30.080  38.499 -49.964  1.00  0.00     0.067 A 
ATOM     19  C   UNL     1      30.240  39.234 -51.154  1.00  0.00     0.066 A 
ATOM     20  C   UNL     1      30.420  39.075 -48.730  1.00  0.00     0.066 A 
ATOM     21  C   UNL     1      30.734  40.532 -51.098  1.00  0.00     0.162 A 
ATOM     22  C   UNL     1      30.913  40.373 -48.699  1.00  0.00     0.162 A 
ATOM     23  C   UNL     1      31.069  41.099 -49.873  1.00  0.00     0.200 A 
BRANCH  21  24
ATOM     24  O   UNL     1      30.907  41.293 -52.219  1.00  0.00    -0.504 OA
ATOM     25  H   UNL     1      31.692  41.857 -52.090  1.00  0.00     0.293 HD
ENDBRANCH  21  24
BRANCH  22  26
ATOM     26  O   UNL     1      31.246  40.933 -47.501  1.00  0.00    -0.504 OA
ATOM     27  H   UNL     1      30.403  40.977 -47.004  1.00  0.00     0.293 HD
ENDBRANCH  22  26
BRANCH  23  28
ATOM     28  O   UNL     1      31.557  42.375 -49.806  1.00  0.00    -0.502 OA
ATOM     29  H   UNL     1      32.518  42.259 -49.653  1.00  0.00     0.293 HD
ENDBRANCH  23  28
ENDBRANCH   1  18
TORSDOF 10
ENDMDL
MODEL 3
REMARK VINA RESULT:    -5.277      2.557      4.657
REMARK INTER + INTRA:          -8.221
REMARK INTER:                  -7.464
REMARK INTRA:                  -0.758
REMARK UNBOUND:                -0.785
REMARK SMILES CO[C@H]1OC(OC(=O)c2cc(O)c(O)c(O)c2)[C@H](O)[C@@H](O)[C@@H]1O
REMARK SMILES IDX 7 1 8 2 6 3 5 4 3 5 22 6 4 7 20 8 18 9 2 10 1 11 23 12 21 14
REMARK SMILES IDX 19 16 9 18 17 19 10 20 15 21 11 22 13 23 16 24 12 26 14 28
REMARK H PARENT 23 13 21 15 19 17 16 25 12 27 14 29
ROOT
ATOM      1  C   UNL     1      30.711  44.339 -50.813  1.00  0.00     0.340 C 
ATOM      2  O   UNL     1      30.658  45.436 -50.280  1.00  0.00    -0.246 OA
ENDROOT
BRANCH   1   3
ATOM      3  O   UNL     1      31.049  44.076 -52.096  1.00  0.00    -0.429 OA
BRANCH   3   4
ATOM      4  C   UNL     1      29.952  43.863 -52.999  1.00  0.00     0.345 C 
ATOM      5  C   UNL     1      30.703  45.595 -54.455  1.00  0.00     0.285 C 
ATOM      6  C   UNL     1      31.091  44.591 -55.555  1.00  0.00     0.202 C 
ATOM      7  O   UNL     1      29.628  45.094 -53.667  1.00  0.00    -0.308 OA
ATOM      8  C   UNL     1      31.445  43.248 -54.928  1.00  0.00     0.183 C 
ATOM      9  C   UNL     1      30.305  42.769 -54.029  1.00  0.00     0.215 C 
BRANCH   5  10
ATOM     10  O   UNL     1      30.317  46.803 -55.130  1.00  0.00    -0.353 OA
ATOM     11  C   UNL     1      30.827  47.959 -54.476  1.00  0.00     0.198 C 
ENDBRANCH   5  10
BRANCH   6  12
ATOM     12  O   UNL     1      32.213  45.056 -56.323  1.00  0.00    -0.385 OA
ATOM     13  H   UNL     1      32.400  44.339 -56.962  1.00  0.00     0.211 HD
ENDBRANCH   6  12
BRANCH   8  14
ATOM     14  O   UNL     1      31.677  42.267 -55.954  1.00  0.00    -0.387 OA
ATOM     15  H   UNL     1      31.648  42.769 -56.795  1.00  0.00     0.211 HD
ENDBRANCH   8  14
BRANCH   9  16
ATOM     16  O   UNL     1      30.689  41.535 -53.411  1.00  0.00    -0.384 OA
ATOM     17  H   UNL     1      31.026  41.786 -52.527  1.00  0.00     0.211 HD
ENDBRANCH   9  16
ENDBRANCH   3   4
ENDBRANCH   1   3
BRANCH   1  18
ATOM     18  C   UNL     1      30.404  43.076 -50.088  1.00  0.00     0.067 A 
ATOM     19  C   UNL     1      31.416  42.101 -50.017  1.00  0.00     0.066 A 
ATOM     20  C   UNL     1      29.155  42.839 -49.493  1.00  0.00     0.066 A 
ATOM     21  C   UNL     1      31.171  40.905 -49.351  1.00  0.00     0.162 A 
ATOM     22  C   UNL     1      28.934  41.636 -48.835  1.00  0.00     0.162 A 
ATOM     23  C   UNL     1      29.933  40.675 -48.762  1.00  0.00     0.200 A 
BRANCH  21  24
ATOM     24  O   UNL     1      32.117  39.924 -49.247  1.00  0.00    -0.504 OA
ATOM     25  H   UNL     1      32.925  40.315 -48.867  1.00  0.00     0.293 HD
ENDBRANCH  21  24
BRANCH  22  26
ATOM     26  O   UNL     1      27.719  41.405 -48.258  1.00  0.00    -0.504 OA
ATOM     27  H   UNL     1      27.103  41.298 -49.011  1.00  0.00     0.293 HD
ENDBRANCH  22  26
BRANCH  23  28
ATOM     28  O   UNL     1      29.681  39.501 -48.106  1.00  0.00    -0.502 OA
ATOM     29  H   UNL     1      30.333  38.871 -48.477  1.00  0.00     0.293 HD
ENDBRANCH  23  28
ENDBRANCH   1  18
TORSDOF 10
ENDMDL
MODEL 4
REMARK VINA RESULT:    -5.222      6.125      9.959
REMARK INTER + INTRA:          -8.144
REMARK INTER:                  -7.438
REMARK INTRA:                  -0.705
REMARK UNBOUND:                -0.785
REMARK SMILES CO[C@H]1OC(OC(=O)c2cc(O)c(O)c(O)c2)[C@H](O)[C@@H](O)[C@@H]1O
REMARK SMILES IDX 7 1 8 2 6 3 5 4 3 5 22 6 4 7 20 8 18 9 2 10 1 11 23 12 21 14
REMARK SMILES IDX 19 16 9 18 17 19 10 20 15 21 11 22 13 23 16 24 12 26 14 28
REMARK H PARENT 23 13 21 15 19 17 16 25 12 27 14 29
ROOT
ATOM      1  C   UNL     1      30.297  35.956 -49.493  1.00  0.00     0.340 C 
ATOM      2  O   UNL     1      30.456  36.468 -50.589  1.00  0.00    -0.246 OA
ENDROOT
BRANCH   1   3
ATOM      3  O   UNL     1      29.192  36.028 -48.716  1.00  0.00    -0.429 OA
BRANCH   3   4
ATOM      4  C   UNL     1      29.181  37.086 -47.744  1.00  0.00     0.345 C 
ATOM      5  C   UNL     1      26.899  37.601 -48.204  1.00  0.00     0.285 C 
ATOM      6  C   UNL     1      26.437  37.075 -46.834  1.00  0.00     0.202 C 
ATOM      7  O   UNL     1      28.233  38.093 -48.135  1.00  0.00    -0.308 OA
ATOM      8  C   UNL     1      27.398  36.000 -46.341  1.00  0.00     0.183 C 
ATOM      9  C   UNL     1      28.832  36.531 -46.347  1.00  0.00     0.215 C 
BRANCH   5  10
ATOM     10  O   UNL     1      25.988  38.652 -48.561  1.00  0.00    -0.353 OA
ATOM     11  C   UNL     1      26.240  39.842 -47.823  1.00  0.00     0.198 C 
ENDBRANCH   5  10
BRANCH   6  12
ATOM     12  O   UNL     1      25.113  36.520 -46.899  1.00  0.00    -0.385 OA
ATOM     13  H   UNL     1      24.805  36.485 -45.971  1.00  0.00     0.211 HD
ENDBRANCH   6  12
BRANCH   8  14
ATOM     14  O   UNL     1      27.052  35.600 -45.003  1.00  0.00    -0.387 OA
ATOM     15  H   UNL     1      27.010  36.435 -44.493  1.00  0.00     0.211 HD
ENDBRANCH   8  14
BRANCH   9  16
ATOM     16  O   UNL     1      29.717  35.484 -45.934  1.00  0.00    -0.384 OA
ATOM     17  H   UNL     1      29.286  34.656 -46.224  1.00  0.00     0.211 HD
ENDBRANCH   9  16
ENDBRANCH   3   4
ENDBRANCH   1   3
BRANCH   1  18
ATOM     18  C   UNL     1      31.345  35.134 -48.830  1.00  0.00     0.067 A 
ATOM     19  C   UNL     1      32.601  35.728 -48.610  1.00  0.00     0.066 A 
ATOM     20  C   UNL     1      31.115  33.807 -48.432  1.00  0.00     0.066 A 
ATOM     21  C   UNL     1      33.610  34.995 -47.995  1.00  0.00     0.162 A 
ATOM     22  C   UNL     1      32.138  33.094 -47.820  1.00  0.00     0.162 A 
ATOM     23  C   UNL     1      33.377  33.682 -47.602  1.00  0.00     0.200 A 
BRANCH  21  24
ATOM     24  O   UNL     1      34.847  35.521 -47.753  1.00  0.00    -0.504 OA
ATOM     25  H   UNL     1      35.267  35.726 -48.609  1.00  0.00     0.293 HD
ENDBRANCH  21  24
BRANCH  22  26
ATOM     26  O   UNL     1      31.916  31.804 -47.435  1.00  0.00    -0.504 OA
ATOM     27  H   UNL     1      32.098  31.797 -46.473  1.00  0.00     0.293 HD
ENDBRANCH  22  26
BRANCH  23  28
ATOM     28  O   UNL     1      34.363  32.951 -46.997  1.00  0.00    -0.502 OA
ATOM     29  H   UNL     1      35.178  33.194 -47.483  1.00  0.00     0.293 HD
ENDBRANCH  23  28
ENDBRANCH   1  18
TORSDOF 10
ENDMDL
MODEL 5
REMARK VINA RESULT:    -5.189      8.320     10.314
REMARK INTER + INTRA:          -8.097
REMARK INTER:                  -7.408
REMARK INTRA:                  -0.689
REMARK UNBOUND:                -0.785
REMARK SMILES CO[C@H]1OC(OC(=O)c2cc(O)c(O)c(O)c2)[C@H](O)[C@@H](O)[C@@H]1O
REMARK SMILES IDX 7 1 8 2 6 3 5 4 3 5 22 6 4 7 20 8 18 9 2 10 1 11 23 12 21 14
REMARK SMILES IDX 19 16 9 18 17 19 10 20 15 21 11 22 13 23 16 24 12 26 14 28
REMARK H PARENT 23 13 21 15 19 17 16 25 12 27 14 29
ROOT
ATOM      1  C   UNL     1      28.501  33.762 -49.499  1.00  0.00     0.340 C 
ATOM      2  O   UNL     1      28.500  33.841 -50.717  1.00  0.00    -0.246 OA
ENDROOT
BRANCH   1   3
ATOM      3  O   UNL     1      29.230  32.910 -48.742  1.00  0.00    -0.429 OA
BRANCH   3   4
ATOM      4  C   UNL     1      30.416  32.386 -49.361  1.00  0.00     0.345 C 
ATOM      5  C   UNL     1      31.813  33.307 -47.663  1.00  0.00     0.285 C 
ATOM      6  C   UNL     1      32.153  31.918 -47.097  1.00  0.00     0.202 C 
ATOM      7  O   UNL     1      31.537  33.233 -49.058  1.00  0.00    -0.308 OA
ATOM      8  C   UNL     1      31.011  30.950 -47.383  1.00  0.00     0.183 C 
ATOM      9  C   UNL     1      30.685  30.945 -48.877  1.00  0.00     0.215 C 
BRANCH   5  10
ATOM     10  O   UNL     1      32.962  34.134 -47.417  1.00  0.00    -0.353 OA
ATOM     11  C   UNL     1      33.005  35.253 -48.296  1.00  0.00     0.198 C 
ENDBRANCH   5  10
BRANCH   6  12
ATOM     12  O   UNL     1      32.377  31.965 -45.679  1.00  0.00    -0.385 OA
ATOM     13  H   UNL     1      32.312  31.036 -45.379  1.00  0.00     0.211 HD
ENDBRANCH   6  12
BRANCH   8  14
ATOM     14  O   UNL     1      31.376  29.618 -46.979  1.00  0.00    -0.387 OA
ATOM     15  H   UNL     1      31.911  29.738 -46.167  1.00  0.00     0.211 HD
ENDBRANCH   8  14
BRANCH   9  16
ATOM     16  O   UNL     1      29.574  30.071 -49.108  1.00  0.00    -0.384 OA
ATOM     17  H   UNL     1      29.326  30.215 -50.043  1.00  0.00     0.211 HD
ENDBRANCH   9  16
ENDBRANCH   3   4
ENDBRANCH   1   3
BRANCH   1  18
ATOM     18  C   UNL     1      27.666  34.639 -48.634  1.00  0.00     0.067 A 
ATOM     19  C   UNL     1      27.857  34.557 -47.243  1.00  0.00     0.066 A 
ATOM     20  C   UNL     1      26.711  35.522 -49.163  1.00  0.00     0.066 A 
ATOM     21  C   UNL     1      27.096  35.357 -46.397  1.00  0.00     0.162 A 
ATOM     22  C   UNL     1      25.963  36.310 -48.298  1.00  0.00     0.162 A 
ATOM     23  C   UNL     1      26.152  36.230 -46.925  1.00  0.00     0.200 A 
BRANCH  21  24
ATOM     24  O   UNL     1      27.241  35.322 -45.039  1.00  0.00    -0.504 OA
ATOM     25  H   UNL     1      26.493  34.822 -44.663  1.00  0.00     0.293 HD
ENDBRANCH  21  24
BRANCH  22  26
ATOM     26  O   UNL     1      25.033  37.166 -48.811  1.00  0.00    -0.504 OA
ATOM     27  H   UNL     1      24.298  37.152 -48.164  1.00  0.00     0.293 HD
ENDBRANCH  22  26
BRANCH  23  28
ATOM     28  O   UNL     1      25.398  37.021 -46.102  1.00  0.00    -0.502 OA
ATOM     29  H   UNL     1      25.130  36.425 -45.372  1.00  0.00     0.293 HD
ENDBRANCH  23  28
ENDBRANCH   1  18
TORSDOF 10
ENDMDL
MODEL 6
REMARK VINA RESULT:    -5.138      5.923      8.286
REMARK INTER + INTRA:          -8.025
REMARK INTER:                  -7.398
REMARK INTRA:                  -0.627
REMARK UNBOUND:                -0.785
REMARK SMILES CO[C@H]1OC(OC(=O)c2cc(O)c(O)c(O)c2)[C@H](O)[C@@H](O)[C@@H]1O
REMARK SMILES IDX 7 1 8 2 6 3 5 4 3 5 22 6 4 7 20 8 18 9 2 10 1 11 23 12 21 14
REMARK SMILES IDX 19 16 9 18 17 19 10 20 15 21 11 22 13 23 16 24 12 26 14 28
REMARK H PARENT 23 13 21 15 19 17 16 25 12 27 14 29
ROOT
ATOM      1  C   UNL     1      29.631  36.942 -49.373  1.00  0.00     0.340 C 
ATOM      2  O   UNL     1      30.135  37.754 -50.132  1.00  0.00    -0.246 OA
ENDROOT
BRANCH   1   3
ATOM      3  O   UNL     1      30.054  35.678 -49.141  1.00  0.00    -0.429 OA
BRANCH   3   4
ATOM      4  C   UNL     1      31.180  35.244 -49.920  1.00  0.00     0.345 C 
ATOM      5  C   UNL     1      32.456  34.761 -47.965  1.00  0.00     0.285 C 
ATOM      6  C   UNL     1      32.390  33.245 -48.218  1.00  0.00     0.202 C 
ATOM      7  O   UNL     1      32.395  35.482 -49.191  1.00  0.00    -0.308 OA
ATOM      8  C   UNL     1      31.125  32.905 -48.997  1.00  0.00     0.183 C 
ATOM      9  C   UNL     1      31.048  33.747 -50.271  1.00  0.00     0.215 C 
BRANCH   5  10
ATOM     10  O   UNL     1      33.703  35.004 -47.295  1.00  0.00    -0.353 OA
ATOM     11  C   UNL     1      34.816  34.635 -48.100  1.00  0.00     0.198 C 
ENDBRANCH   5  10
BRANCH   6  12
ATOM     12  O   UNL     1      32.391  32.503 -46.987  1.00  0.00    -0.385 OA
ATOM     13  H   UNL     1      31.665  31.853 -47.080  1.00  0.00     0.211 HD
ENDBRANCH   6  12
BRANCH   8  14
ATOM     14  O   UNL     1      31.122  31.512 -49.355  1.00  0.00    -0.387 OA
ATOM     15  H   UNL     1      31.136  31.502 -50.335  1.00  0.00     0.211 HD
ENDBRANCH   8  14
BRANCH   9  16
ATOM     16  O   UNL     1      29.824  33.447 -50.952  1.00  0.00    -0.384 OA
ATOM     17  H   UNL     1      30.083  32.873 -51.701  1.00  0.00     0.211 HD
ENDBRANCH   9  16
ENDBRANCH   3   4
ENDBRANCH   1   3
BRANCH   1  18
ATOM     18  C   UNL     1      28.428  37.246 -48.553  1.00  0.00     0.067 A 
ATOM     19  C   UNL     1      28.209  36.468 -47.401  1.00  0.00     0.066 A 
ATOM     20  C   UNL     1      27.524  38.264 -48.896  1.00  0.00     0.066 A 
ATOM     21  C   UNL     1      27.095  36.716 -46.606  1.00  0.00     0.162 A 
ATOM     22  C   UNL     1      26.418  38.492 -48.088  1.00  0.00     0.162 A 
ATOM     23  C   UNL     1      26.203  37.725 -46.950  1.00  0.00     0.200 A 
BRANCH  21  24
ATOM     24  O   UNL     1      26.834  35.995 -45.475  1.00  0.00    -0.504 OA
ATOM     25  H   UNL     1      26.282  35.229 -45.719  1.00  0.00     0.293 HD
ENDBRANCH  21  24
BRANCH  22  26
ATOM     26  O   UNL     1      25.538  39.480 -48.422  1.00  0.00    -0.504 OA
ATOM     27  H   UNL     1      26.050  40.310 -48.331  1.00  0.00     0.293 HD
ENDBRANCH  22  26
BRANCH  23  28
ATOM     28  O   UNL     1      25.104  37.978 -46.175  1.00  0.00    -0.502 OA
ATOM     29  H   UNL     1      25.351  37.644 -45.288  1.00  0.00     0.293 HD
ENDBRANCH  23  28
ENDBRANCH   1  18
TORSDOF 10
ENDMDL
MODEL 7
REMARK VINA RESULT:    -5.136      2.969      5.725
REMARK INTER + INTRA:          -8.022
REMARK INTER:                  -7.199
REMARK INTRA:                  -0.823
REMARK UNBOUND:                -0.785
REMARK SMILES CO[C@H]1OC(OC(=O)c2cc(O)c(O)c(O)c2)[C@H](O)[C@@H](O)[C@@H]1O
REMARK SMILES IDX 7 1 8 2 6 3 5 4 3 5 22 6 4 7 20 8 18 9 2 10 1 11 23 12 21 14
REMARK SMILES IDX 19 16 9 18 17 19 10 20 15 21 11 22 13 23 16 24 12 26 14 28
REMARK H PARENT 23 13 21 15 19 17 16 25 12 27 14 29
ROOT
ATOM      1  C   UNL     1      31.296  42.231 -51.182  1.00  0.00     0.340 C 
ATOM      2  O   UNL     1      31.409  43.113 -50.347  1.00  0.00    -0.246 OA
ENDROOT
BRANCH   1   3
ATOM      3  O   UNL     1      31.110  40.911 -50.947  1.00  0.00    -0.429 OA
BRANCH   3   4
ATOM      4  C   UNL     1      29.762  40.514 -50.651  1.00  0.00     0.345 C 
ATOM      5  C   UNL     1      30.216  38.242 -51.211  1.00  0.00     0.285 C 
ATOM      6  C   UNL     1      30.092  37.788 -49.746  1.00  0.00     0.202 C 
ATOM      7  O   UNL     1      29.400  39.382 -51.459  1.00  0.00    -0.308 OA
ATOM      8  C   UNL     1      30.454  38.940 -48.816  1.00  0.00     0.183 C 
ATOM      9  C   UNL     1      29.617  40.173 -49.152  1.00  0.00     0.215 C 
BRANCH   5  10
ATOM     10  O   UNL     1      29.791  37.129 -52.015  1.00  0.00    -0.353 OA
ATOM     11  C   UNL     1      30.708  36.859 -53.068  1.00  0.00     0.198 C 
ENDBRANCH   5  10
BRANCH   6  12
ATOM     12  O   UNL     1      30.954  36.674 -49.463  1.00  0.00    -0.385 OA
ATOM     13  H   UNL     1      30.511  35.899 -49.866  1.00  0.00     0.211 HD
ENDBRANCH   6  12
BRANCH   8  14
ATOM     14  O   UNL     1      30.212  38.567 -47.447  1.00  0.00    -0.387 OA
ATOM     15  H   UNL     1      31.073  38.239 -47.118  1.00  0.00     0.211 HD
ENDBRANCH   8  14
BRANCH   9  16
ATOM     16  O   UNL     1      30.017  41.253 -48.302  1.00  0.00    -0.384 OA
ATOM     17  H   UNL     1      30.804  41.642 -48.735  1.00  0.00     0.211 HD
ENDBRANCH   9  16
ENDBRANCH   3   4
ENDBRANCH   1   3
BRANCH   1  18
ATOM     18  C   UNL     1      31.340  42.495 -52.645  1.00  0.00     0.067 A 
ATOM     19  C   UNL     1      30.926  43.763 -53.093  1.00  0.00     0.066 A 
ATOM     20  C   UNL     1      31.772  41.530 -53.568  1.00  0.00     0.066 A 
ATOM     21  C   UNL     1      30.949  44.052 -54.453  1.00  0.00     0.162 A 
ATOM     22  C   UNL     1      31.785  41.841 -54.922  1.00  0.00     0.162 A 
ATOM     23  C   UNL     1      31.377  43.093 -55.363  1.00  0.00     0.200 A 
BRANCH  21  24
ATOM     24  O   UNL     1      30.560  45.267 -54.945  1.00  0.00    -0.504 OA
ATOM     25  H   UNL     1      31.023  45.419 -55.790  1.00  0.00     0.293 HD
ENDBRANCH  21  24
BRANCH  22  26
ATOM     26  O   UNL     1      32.202  40.902 -55.819  1.00  0.00    -0.504 OA
ATOM     27  H   UNL     1      31.406  40.360 -56.000  1.00  0.00     0.293 HD
ENDBRANCH  22  26
BRANCH  23  28
ATOM     28  O   UNL     1      31.403  43.366 -56.704  1.00  0.00    -0.502 OA
ATOM     29  H   UNL     1      30.554  43.011 -57.040  1.00  0.00     0.293 HD
ENDBRANCH  23  28
ENDBRANCH   1  18
TORSDOF 10
ENDMDL
MODEL 8
REMARK VINA RESULT:    -5.108      2.289      3.872
REMARK INTER + INTRA:          -7.983
REMARK INTER:                  -7.175
REMARK INTRA:                  -0.808
REMARK UNBOUND:                -0.785
REMARK SMILES CO[C@H]1OC(OC(=O)c2cc(O)c(O)c(O)c2)[C@H](O)[C@@H](O)[C@@H]1O
REMARK SMILES IDX 7 1 8 2 6 3 5 4 3 5 22 6 4 7 20 8 18 9 2 10 1 11 23 12 21 14
REMARK SMILES IDX 19 16 9 18 17 19 10 20 15 21 11 22 13 23 16 24 12 26 14 28
REMARK H PARENT 23 13 21 15 19 17 16 25 12 27 14 29
ROOT
ATOM      1  C   UNL     1      30.701  44.207 -51.144  1.00  0.00     0.340 C 
ATOM      2  O   UNL     1      31.261  45.019 -50.424  1.00  0.00    -0.246 OA
ENDROOT
BRANCH   1   3
ATOM      3  O   UNL     1      30.482  44.320 -52.474  1.00  0.00    -0.429 OA
BRANCH   3   4
ATOM      4  C   UNL     1      31.619  44.707 -53.263  1.00  0.00     0.345 C 
ATOM      5  C   UNL     1      31.284  42.906 -54.788  1.00  0.00     0.285 C 
ATOM      6  C   UNL     1      30.860  43.858 -55.920  1.00  0.00     0.202 C 
ATOM      7  O   UNL     1      32.188  43.550 -53.896  1.00  0.00    -0.308 OA
ATOM      8  C   UNL     1      30.248  45.123 -55.331  1.00  0.00     0.183 C 
ATOM      9  C   UNL     1      31.209  45.753 -54.322  1.00  0.00     0.215 C 
BRANCH   5  10
ATOM     10  O   UNL     1      31.911  41.780 -55.422  1.00  0.00    -0.353 OA
ATOM     11  C   UNL     1      31.715  40.581 -54.681  1.00  0.00     0.198 C 
ENDBRANCH   5  10
BRANCH   6  12
ATOM     12  O   UNL     1      29.902  43.243 -56.797  1.00  0.00    -0.385 OA
ATOM     13  H   UNL     1      29.032  43.587 -56.506  1.00  0.00     0.211 HD
ENDBRANCH   6  12
BRANCH   8  14
ATOM     14  O   UNL     1      29.974  46.075 -56.374  1.00  0.00    -0.387 OA
ATOM     15  H   UNL     1      29.099  46.452 -56.149  1.00  0.00     0.211 HD
ENDBRANCH   8  14
BRANCH   9  16
ATOM     16  O   UNL     1      30.586  46.906 -53.744  1.00  0.00    -0.384 OA
ATOM     17  H   UNL     1      30.790  47.641 -54.356  1.00  0.00     0.211 HD
ENDBRANCH   9  16
ENDBRANCH   3   4
ENDBRANCH   1   3
BRANCH   1  18
ATOM     18  C   UNL     1      30.163  42.917 -50.637  1.00  0.00     0.067 A 
ATOM     19  C   UNL     1      29.253  42.963 -49.565  1.00  0.00     0.066 A 
ATOM     20  C   UNL     1      30.538  41.681 -51.188  1.00  0.00     0.066 A 
ATOM     21  C   UNL     1      28.727  41.780 -49.058  1.00  0.00     0.162 A 
ATOM     22  C   UNL     1      30.001  40.512 -50.664  1.00  0.00     0.162 A 
ATOM     23  C   UNL     1      29.101  40.559 -49.607  1.00  0.00     0.200 A 
BRANCH  21  24
ATOM     24  O   UNL     1      27.838  41.765 -48.020  1.00  0.00    -0.504 OA
ATOM     25  H   UNL     1      27.970  40.942 -47.514  1.00  0.00     0.293 HD
ENDBRANCH  21  24
BRANCH  22  26
ATOM     26  O   UNL     1      30.367  39.311 -51.198  1.00  0.00    -0.504 OA
ATOM     27  H   UNL     1      30.046  39.342 -52.123  1.00  0.00     0.293 HD
ENDBRANCH  22  26
BRANCH  23  28
ATOM     28  O   UNL     1      28.591  39.388 -49.116  1.00  0.00    -0.502 OA
ATOM     29  H   UNL     1      29.377  38.896 -48.799  1.00  0.00     0.293 HD
ENDBRANCH  23  28
ENDBRANCH   1  18
TORSDOF 10
ENDMDL
MODEL 9
REMARK VINA RESULT:    -5.036      2.819      5.129
REMARK INTER + INTRA:          -7.882
REMARK INTER:                  -7.093
REMARK INTRA:                  -0.789
REMARK UNBOUND:                -0.785
REMARK SMILES CO[C@H]1OC(OC(=O)c2cc(O)c(O)c(O)c2)[C@H](O)[C@@H](O)[C@@H]1O
REMARK SMILES IDX 7 1 8 2 6 3 5 4 3 5 22 6 4 7 20 8 18 9 2 10 1 11 23 12 21 14
REMARK SMILES IDX 19 16 9 18 17 19 10 20 15 21 11 22 13 23 16 24 12 26 14 28
REMARK H PARENT 23 13 21 15 19 17 16 25 12 27 14 29
ROOT
ATOM      1  C   UNL     1      31.773  42.321 -52.390  1.00  0.00     0.340 C 
ATOM      2  O   UNL     1      32.711  41.912 -53.053  1.00  0.00    -0.246 OA
ENDROOT
BRANCH   1   3
ATOM      3  O   UNL     1      31.200  43.545 -52.463  1.00  0.00    -0.429 OA
BRANCH   3   4
ATOM      4  C   UNL     1      30.257  43.729 -53.530  1.00  0.00     0.345 C 
ATOM      5  C   UNL     1      29.373  45.702 -52.524  1.00  0.00     0.285 C 
ATOM      6  C   UNL     1      29.964  46.604 -53.622  1.00  0.00     0.202 C 
ATOM      7  O   UNL     1      29.088  44.404 -53.034  1.00  0.00    -0.308 OA
ATOM      8  C   UNL     1      31.211  45.955 -54.210  1.00  0.00     0.183 C 
ATOM      9  C   UNL     1      30.895  44.536 -54.681  1.00  0.00     0.215 C 
BRANCH   5  10
ATOM     10  O   UNL     1      28.170  46.347 -52.076  1.00  0.00    -0.353 OA
ATOM     11  C   UNL     1      27.102  46.169 -52.998  1.00  0.00     0.198 C 
ENDBRANCH   5  10
BRANCH   6  12
ATOM     12  O   UNL     1      30.312  47.901 -53.110  1.00  0.00    -0.385 OA
ATOM     13  H   UNL     1      30.434  48.464 -53.901  1.00  0.00     0.211 HD
ENDBRANCH   6  12
BRANCH   8  14
ATOM     14  O   UNL     1      31.691  46.724 -55.327  1.00  0.00    -0.387 OA
ATOM     15  H   UNL     1      32.005  47.566 -54.937  1.00  0.00     0.211 HD
ENDBRANCH   8  14
BRANCH   9  16
ATOM     16  O   UNL     1      32.095  43.932 -55.176  1.00  0.00    -0.384 OA
ATOM     17  H   UNL     1      32.044  44.021 -56.149  1.00  0.00     0.211 HD
ENDBRANCH   9  16
ENDBRANCH   3   4
ENDBRANCH   1   3
BRANCH   1  18
ATOM     18  C   UNL     1      31.089  41.490 -51.364  1.00  0.00     0.067 A 
ATOM     19  C   UNL     1      31.431  41.701 -50.015  1.00  0.00     0.066 A 
ATOM     20  C   UNL     1      30.134  40.517 -51.702  1.00  0.00     0.066 A 
ATOM     21  C   UNL     1      30.817  40.944 -49.023  1.00  0.00     0.162 A 
ATOM     22  C   UNL     1      29.535  39.773 -50.694  1.00  0.00     0.162 A 
ATOM     23  C   UNL     1      29.873  39.983 -49.364  1.00  0.00     0.200 A 
BRANCH  21  24
ATOM     24  O   UNL     1      31.109  41.109 -47.698  1.00  0.00    -0.504 OA
ATOM     25  H   UNL     1      31.355  42.040 -47.551  1.00  0.00     0.293 HD
ENDBRANCH  21  24
BRANCH  22  26
ATOM     26  O   UNL     1      28.610  38.826 -51.023  1.00  0.00    -0.504 OA
ATOM     27  H   UNL     1      28.593  38.218 -50.256  1.00  0.00     0.293 HD
ENDBRANCH  22  26
BRANCH  23  28
ATOM     28  O   UNL     1      29.263  39.232 -48.396  1.00  0.00    -0.502 OA
ATOM     29  H   UNL     1      29.632  39.574 -47.555  1.00  0.00     0.293 HD
ENDBRANCH  23  28
ENDBRANCH   1  18
TORSDOF 10
ENDMDL
