MODEL 1
REMARK VINA RESULT:    -6.031      0.000      0.000
REMARK INTER + INTRA:          -9.483
REMARK INTER:                  -8.675
REMARK INTRA:                  -0.808
REMARK UNBOUND:                -0.808
REMARK SMILES O=C([O-])C1=CO[C@@H](O[C@@H]2O[C@H](CO)[C@@H](O)[C@H](O)[C@H]2O)[C@@H]2[C@@H](CO)CC[C@H]12
REMARK SMILES IDX 8 1 7 2 24 3 25 4 21 5 26 6 20 7 4 8 5 9 6 10 22 11 23 12
REMARK SMILES IDX 2 14 1 15 3 16 9 17 18 18 10 19 16 20 11 21 14 22 19 23
REMARK SMILES IDX 17 25 12 27 13 28 15 30
REMARK H PARENT 23 13 19 24 17 26 13 29 15 31
ROOT
ATOM      1  O   UNL     1      31.103  40.952 -51.246  1.00  0.00    -0.310 OA
ENDROOT
BRANCH   1   2
ATOM      2  C   UNL     1      30.369  40.870 -50.015  1.00  0.00     0.313 C 
ATOM      3  C   UNL     1      27.529  38.424 -49.407  1.00  0.00     0.007 C 
ATOM      4  C   UNL     1      28.618  37.519 -49.979  1.00  0.00     0.009 C 
ATOM      5  C   UNL     1      28.253  39.715 -49.041  1.00  0.00     0.024 C 
ATOM      6  C   UNL     1      29.780  38.438 -50.414  1.00  0.00     0.034 C 
ATOM      7  C   UNL     1      29.231  39.869 -50.220  1.00  0.00     0.071 C 
ATOM      8  C   UNL     1      31.030  38.219 -49.601  1.00  0.00     0.013 C 
ATOM      9  C   UNL     1      31.613  39.206 -48.909  1.00  0.00     0.196 C 
ATOM     10  O   UNL     1      31.213  40.518 -48.908  1.00  0.00    -0.472 OA
BRANCH   5  11
ATOM     11  C   UNL     1      27.293  40.883 -48.859  1.00  0.00     0.160 C 
BRANCH  11  12
ATOM     12  O   UNL     1      27.811  41.829 -47.932  1.00  0.00    -0.396 OA
ATOM     13  H   UNL     1      27.160  42.550 -47.862  1.00  0.00     0.210 HD
ENDBRANCH  11  12
ENDBRANCH   5  11
BRANCH   8  14
ATOM     14  C   UNL     1      31.661  36.812 -49.573  1.00  0.00     0.071 C 
ATOM     15  O   UNL     1      31.852  36.272 -50.698  1.00  0.00    -0.545 OA
ATOM     16  O   UNL     1      31.906  36.369 -48.414  1.00  0.00    -0.545 OA
ENDBRANCH   8  14
ENDBRANCH   1   2
BRANCH   1  17
ATOM     17  C   UNL     1      31.450  42.290 -51.584  1.00  0.00     0.286 C 
ATOM     18  C   UNL     1      31.579  42.323 -53.118  1.00  0.00     0.202 C 
ATOM     19  O   UNL     1      30.420  43.181 -51.144  1.00  0.00    -0.341 OA
ATOM     20  C   UNL     1      31.836  43.753 -53.580  1.00  0.00     0.179 C 
ATOM     21  C   UNL     1      30.688  44.548 -51.507  1.00  0.00     0.178 C 
ATOM     22  C   UNL     1      30.767  44.698 -53.031  1.00  0.00     0.177 C 
BRANCH  18  23
ATOM     23  O   UNL     1      32.657  41.503 -53.592  1.00  0.00    -0.385 OA
ATOM     24  H   UNL     1      32.755  40.773 -52.941  1.00  0.00     0.211 HD
ENDBRANCH  18  23
BRANCH  20  25
ATOM     25  O   UNL     1      31.833  43.826 -55.016  1.00  0.00    -0.387 OA
ATOM     26  H   UNL     1      32.063  42.916 -55.304  1.00  0.00     0.211 HD
ENDBRANCH  20  25
BRANCH  21  27
ATOM     27  C   UNL     1      29.560  45.404 -50.922  1.00  0.00     0.191 C 
BRANCH  27  28
ATOM     28  O   UNL     1      30.094  46.315 -49.958  1.00  0.00    -0.394 OA
ATOM     29  H   UNL     1      30.581  45.761 -49.316  1.00  0.00     0.210 HD
ENDBRANCH  27  28
ENDBRANCH  21  27
BRANCH  22  30
ATOM     30  O   UNL     1      31.088  46.039 -53.409  1.00  0.00    -0.387 OA
ATOM     31  H   UNL     1      31.775  46.322 -52.770  1.00  0.00     0.211 HD
ENDBRANCH  22  30
ENDBRANCH   1  17
TORSDOF 10
ENDMDL
MODEL 2
REMARK VINA RESULT:    -5.944      1.699      3.203
REMARK INTER + INTRA:          -9.358
REMARK INTER:                  -8.588
REMARK INTRA:                  -0.770
REMARK UNBOUND:                -0.808
REMARK SMILES O=C([O-])C1=CO[C@@H](O[C@@H]2O[C@H](CO)[C@@H](O)[C@H](O)[C@H]2O)[C@@H]2[C@@H](CO)CC[C@H]12
REMARK SMILES IDX 8 1 7 2 24 3 25 4 21 5 26 6 20 7 4 8 5 9 6 10 22 11 23 12
REMARK SMILES IDX 2 14 1 15 3 16 9 17 18 18 10 19 16 20 11 21 14 22 19 23
REMARK SMILES IDX 17 25 12 27 13 28 15 30
REMARK H PARENT 23 13 19 24 17 26 13 29 15 31
ROOT
ATOM      1  O   UNL     1      31.806  42.092 -51.490  1.00  0.00    -0.310 OA
ENDROOT
BRANCH   1   2
ATOM      2  C   UNL     1      31.061  42.371 -50.296  1.00  0.00     0.313 C 
ATOM      3  C   UNL     1      27.606  40.966 -49.585  1.00  0.00     0.007 C 
ATOM      4  C   UNL     1      28.381  39.720 -50.005  1.00  0.00     0.009 C 
ATOM      5  C   UNL     1      28.679  42.015 -49.316  1.00  0.00     0.024 C 
ATOM      6  C   UNL     1      29.773  40.195 -50.473  1.00  0.00     0.034 C 
ATOM      7  C   UNL     1      29.677  41.738 -50.454  1.00  0.00     0.071 C 
ATOM      8  C   UNL     1      30.885  39.707 -49.581  1.00  0.00     0.013 C 
ATOM      9  C   UNL     1      31.726  40.547 -48.965  1.00  0.00     0.196 C 
ATOM     10  O   UNL     1      31.741  41.910 -49.118  1.00  0.00    -0.472 OA
BRANCH   5  11
ATOM     11  C   UNL     1      28.113  43.429 -49.302  1.00  0.00     0.160 C 
BRANCH  11  12
ATOM     12  O   UNL     1      27.651  43.780 -48.004  1.00  0.00    -0.396 OA
ATOM     13  H   UNL     1      26.680  43.845 -48.052  1.00  0.00     0.210 HD
ENDBRANCH  11  12
ENDBRANCH   5  11
BRANCH   8  14
ATOM     14  C   UNL     1      31.062  38.188 -49.378  1.00  0.00     0.071 C 
ATOM     15  O   UNL     1      31.040  37.789 -48.180  1.00  0.00    -0.545 OA
ATOM     16  O   UNL     1      31.213  37.528 -50.445  1.00  0.00    -0.545 OA
ENDBRANCH   8  14
ENDBRANCH   1   2
BRANCH   1  17
ATOM     17  C   UNL     1      31.112  42.484 -52.669  1.00  0.00     0.286 C 
ATOM     18  C   UNL     1      31.706  43.843 -53.082  1.00  0.00     0.202 C 
ATOM     19  O   UNL     1      31.317  41.510 -53.696  1.00  0.00    -0.341 OA
ATOM     20  C   UNL     1      31.099  44.286 -54.408  1.00  0.00     0.179 C 
ATOM     21  C   UNL     1      30.683  41.878 -54.934  1.00  0.00     0.178 C 
ATOM     22  C   UNL     1      31.259  43.195 -55.467  1.00  0.00     0.177 C 
BRANCH  18  23
ATOM     23  O   UNL     1      31.448  44.868 -52.111  1.00  0.00    -0.385 OA
ATOM     24  H   UNL     1      32.007  44.656 -51.331  1.00  0.00     0.211 HD
ENDBRANCH  18  23
BRANCH  20  25
ATOM     25  O   UNL     1      31.732  45.490 -54.874  1.00  0.00    -0.387 OA
ATOM     26  H   UNL     1      31.412  45.588 -55.797  1.00  0.00     0.211 HD
ENDBRANCH  20  25
BRANCH  21  27
ATOM     27  C   UNL     1      30.912  40.731 -55.923  1.00  0.00     0.191 C 
BRANCH  27  28
ATOM     28  O   UNL     1      32.168  40.904 -56.583  1.00  0.00    -0.394 OA
ATOM     29  H   UNL     1      32.588  40.021 -56.581  1.00  0.00     0.210 HD
ENDBRANCH  27  28
ENDBRANCH  21  27
BRANCH  22  30
ATOM     30  O   UNL     1      30.602  43.608 -56.668  1.00  0.00    -0.387 OA
ATOM     31  H   UNL     1      30.514  44.580 -56.584  1.00  0.00     0.211 HD
ENDBRANCH  22  30
ENDBRANCH   1  17
TORSDOF 10
ENDMDL
MODEL 3
REMARK VINA RESULT:    -5.740      2.730      5.318
REMARK INTER + INTRA:          -9.064
REMARK INTER:                  -8.059
REMARK INTRA:                  -1.006
REMARK UNBOUND:                -0.808
REMARK SMILES O=C([O-])C1=CO[C@@H](O[C@@H]2O[C@H](CO)[C@@H](O)[C@H](O)[C@H]2O)[C@@H]2[C@@H](CO)CC[C@H]12
REMARK SMILES IDX 8 1 7 2 24 3 25 4 21 5 26 6 20 7 4 8 5 9 6 10 22 11 23 12
REMARK SMILES IDX 2 14 1 15 3 16 9 17 18 18 10 19 16 20 11 21 14 22 19 23
REMARK SMILES IDX 17 25 12 27 13 28 15 30
REMARK H PARENT 23 13 19 24 17 26 13 29 15 31
ROOT
ATOM      1  O   UNL     1      28.241  38.932 -48.494  1.00  0.00    -0.310 OA
ENDROOT
BRANCH   1   2
ATOM      2  C   UNL     1      28.856  37.834 -49.185  1.00  0.00     0.313 C 
ATOM      3  C   UNL     1      31.396  35.498 -47.603  1.00  0.00     0.007 C 
ATOM      4  C   UNL     1      30.282  35.518 -46.559  1.00  0.00     0.009 C 
ATOM      5  C   UNL     1      30.765  36.101 -48.853  1.00  0.00     0.024 C 
ATOM      6  C   UNL     1      29.251  36.568 -47.026  1.00  0.00     0.034 C 
ATOM      7  C   UNL     1      29.911  37.233 -48.255  1.00  0.00     0.071 C 
ATOM      8  C   UNL     1      27.921  35.958 -47.385  1.00  0.00     0.013 C 
ATOM      9  C   UNL     1      27.373  36.103 -48.598  1.00  0.00     0.196 C 
ATOM     10  O   UNL     1      27.891  36.862 -49.617  1.00  0.00    -0.472 OA
BRANCH   5  11
ATOM     11  C   UNL     1      31.809  36.561 -49.861  1.00  0.00     0.160 C 
BRANCH  11  12
ATOM     12  O   UNL     1      31.439  36.189 -51.183  1.00  0.00    -0.396 OA
ATOM     13  H   UNL     1      30.570  35.753 -51.127  1.00  0.00     0.210 HD
ENDBRANCH  11  12
ENDBRANCH   5  11
BRANCH   8  14
ATOM     14  C   UNL     1      27.163  35.145 -46.315  1.00  0.00     0.071 C 
ATOM     15  O   UNL     1      27.008  35.716 -45.200  1.00  0.00    -0.545 OA
ATOM     16  O   UNL     1      26.794  33.996 -46.691  1.00  0.00    -0.545 OA
ENDBRANCH   8  14
ENDBRANCH   1   2
BRANCH   1  17
ATOM     17  C   UNL     1      28.172  40.108 -49.294  1.00  0.00     0.286 C 
ATOM     18  C   UNL     1      27.724  41.239 -48.350  1.00  0.00     0.202 C 
ATOM     19  O   UNL     1      29.461  40.391 -49.846  1.00  0.00    -0.341 OA
ATOM     20  C   UNL     1      27.736  42.566 -49.100  1.00  0.00     0.179 C 
ATOM     21  C   UNL     1      29.469  41.603 -50.622  1.00  0.00     0.178 C 
ATOM     22  C   UNL     1      29.099  42.808 -49.749  1.00  0.00     0.177 C 
BRANCH  18  23
ATOM     23  O   UNL     1      26.399  41.030 -47.840  1.00  0.00    -0.385 OA
ATOM     24  H   UNL     1      26.353  40.085 -47.571  1.00  0.00     0.211 HD
ENDBRANCH  18  23
BRANCH  20  25
ATOM     25  O   UNL     1      27.443  43.653 -48.206  1.00  0.00    -0.387 OA
ATOM     26  H   UNL     1      26.761  44.177 -48.679  1.00  0.00     0.211 HD
ENDBRANCH  20  25
BRANCH  21  27
ATOM     27  C   UNL     1      30.874  41.756 -51.214  1.00  0.00     0.191 C 
BRANCH  27  28
ATOM     28  O   UNL     1      31.619  42.710 -50.452  1.00  0.00    -0.394 OA
ATOM     29  H   UNL     1      32.254  43.109 -51.081  1.00  0.00     0.210 HD
ENDBRANCH  27  28
ENDBRANCH  21  27
BRANCH  22  30
ATOM     30  O   UNL     1      29.046  44.014 -50.515  1.00  0.00    -0.387 OA
ATOM     31  H   UNL     1      29.958  44.372 -50.480  1.00  0.00     0.211 HD
ENDBRANCH  22  30
ENDBRANCH   1  17
TORSDOF 10
ENDMDL
MODEL 4
REMARK VINA RESULT:    -5.704      2.085      4.443
REMARK INTER + INTRA:          -9.012
REMARK INTER:                  -8.096
REMARK INTRA:                  -0.917
REMARK UNBOUND:                -0.808
REMARK SMILES O=C([O-])C1=CO[C@@H](O[C@@H]2O[C@H](CO)[C@@H](O)[C@H](O)[C@H]2O)[C@@H]2[C@@H](CO)CC[C@H]12
REMARK SMILES IDX 8 1 7 2 24 3 25 4 21 5 26 6 20 7 4 8 5 9 6 10 22 11 23 12
REMARK SMILES IDX 2 14 1 15 3 16 9 17 18 18 10 19 16 20 11 21 14 22 19 23
REMARK SMILES IDX 17 25 12 27 13 28 15 30
REMARK H PARENT 23 13 19 24 17 26 13 29 15 31
ROOT
ATOM      1  O   UNL     1      29.491  40.005 -49.464  1.00  0.00    -0.310 OA
ENDROOT
BRANCH   1   2
ATOM      2  C   UNL     1      29.252  38.909 -50.361  1.00  0.00     0.313 C 
ATOM      3  C   UNL     1      31.761  36.138 -51.028  1.00  0.00     0.007 C 
ATOM      4  C   UNL     1      31.742  36.197 -49.502  1.00  0.00     0.009 C 
ATOM      5  C   UNL     1      30.531  36.930 -51.459  1.00  0.00     0.024 C 
ATOM      6  C   UNL     1      30.864  37.406 -49.111  1.00  0.00     0.034 C 
ATOM      7  C   UNL     1      30.545  38.097 -50.456  1.00  0.00     0.071 C 
ATOM      8  C   UNL     1      29.603  37.001 -48.393  1.00  0.00     0.013 C 
ATOM      9  C   UNL     1      28.387  37.326 -48.849  1.00  0.00     0.196 C 
ATOM     10  O   UNL     1      28.134  38.109 -49.947  1.00  0.00    -0.472 OA
BRANCH   5  11
ATOM     11  C   UNL     1      30.601  37.352 -52.921  1.00  0.00     0.160 C 
BRANCH  11  12
ATOM     12  O   UNL     1      31.690  36.720 -53.582  1.00  0.00    -0.396 OA
ATOM     13  H   UNL     1      31.408  35.813 -53.798  1.00  0.00     0.210 HD
ENDBRANCH  11  12
ENDBRANCH   5  11
BRANCH   8  14
ATOM     14  C   UNL     1      29.720  36.190 -47.087  1.00  0.00     0.071 C 
ATOM     15  O   UNL     1      29.963  36.860 -46.044  1.00  0.00    -0.545 OA
ATOM     16  O   UNL     1      29.561  34.943 -47.225  1.00  0.00    -0.545 OA
ENDBRANCH   8  14
ENDBRANCH   1   2
BRANCH   1  17
ATOM     17  C   UNL     1      28.951  41.230 -49.946  1.00  0.00     0.286 C 
ATOM     18  C   UNL     1      28.492  42.011 -48.702  1.00  0.00     0.202 C 
ATOM     19  O   UNL     1      29.961  41.955 -50.654  1.00  0.00    -0.341 OA
ATOM     20  C   UNL     1      28.004  43.395 -49.117  1.00  0.00     0.179 C 
ATOM     21  C   UNL     1      29.491  43.233 -51.120  1.00  0.00     0.178 C 
ATOM     22  C   UNL     1      29.069  44.118 -49.942  1.00  0.00     0.177 C 
BRANCH  18  23
ATOM     23  O   UNL     1      27.420  41.353 -48.010  1.00  0.00    -0.385 OA
ATOM     24  H   UNL     1      27.841  40.690 -47.418  1.00  0.00     0.211 HD
ENDBRANCH  18  23
BRANCH  20  25
ATOM     25  O   UNL     1      27.689  44.187 -47.959  1.00  0.00    -0.387 OA
ATOM     26  H   UNL     1      27.463  45.069 -48.326  1.00  0.00     0.211 HD
ENDBRANCH  20  25
BRANCH  21  27
ATOM     27  C   UNL     1      30.630  43.875 -51.919  1.00  0.00     0.191 C 
BRANCH  27  28
ATOM     28  O   UNL     1      31.307  44.838 -51.107  1.00  0.00    -0.394 OA
ATOM     29  H   UNL     1      32.233  44.527 -51.049  1.00  0.00     0.210 HD
ENDBRANCH  27  28
ENDBRANCH  21  27
BRANCH  22  30
ATOM     30  O   UNL     1      28.546  45.372 -50.388  1.00  0.00    -0.387 OA
ATOM     31  H   UNL     1      28.525  45.300 -51.365  1.00  0.00     0.211 HD
ENDBRANCH  22  30
ENDBRANCH   1  17
TORSDOF 10
ENDMDL
MODEL 5
REMARK VINA RESULT:    -5.702      3.573      8.076
REMARK INTER + INTRA:          -9.011
REMARK INTER:                  -7.842
REMARK INTRA:                  -1.169
REMARK UNBOUND:                -0.808
REMARK SMILES O=C([O-])C1=CO[C@@H](O[C@@H]2O[C@H](CO)[C@@H](O)[C@H](O)[C@H]2O)[C@@H]2[C@@H](CO)CC[C@H]12
REMARK SMILES IDX 8 1 7 2 24 3 25 4 21 5 26 6 20 7 4 8 5 9 6 10 22 11 23 12
REMARK SMILES IDX 2 14 1 15 3 16 9 17 18 18 10 19 16 20 11 21 14 22 19 23
REMARK SMILES IDX 17 25 12 27 13 28 15 30
REMARK H PARENT 23 13 19 24 17 26 13 29 15 31
ROOT
ATOM      1  O   UNL     1      31.089  36.834 -49.642  1.00  0.00    -0.310 OA
ENDROOT
BRANCH   1   2
ATOM      2  C   UNL     1      30.640  38.096 -49.124  1.00  0.00     0.313 C 
ATOM      3  C   UNL     1      30.845  41.363 -51.048  1.00  0.00     0.007 C 
ATOM      4  C   UNL     1      30.210  40.425 -52.071  1.00  0.00     0.009 C 
ATOM      5  C   UNL     1      30.721  40.625 -49.719  1.00  0.00     0.024 C 
ATOM      6  C   UNL     1      30.219  39.012 -51.449  1.00  0.00     0.034 C 
ATOM      7  C   UNL     1      31.021  39.176 -50.138  1.00  0.00     0.071 C 
ATOM      8  C   UNL     1      28.833  38.488 -51.178  1.00  0.00     0.013 C 
ATOM      9  C   UNL     1      28.437  38.116 -49.954  1.00  0.00     0.196 C 
ATOM     10  O   UNL     1      29.233  38.089 -48.837  1.00  0.00    -0.472 OA
BRANCH   5  11
ATOM     11  C   UNL     1      31.660  41.185 -48.659  1.00  0.00     0.160 C 
BRANCH  11  12
ATOM     12  O   UNL     1      31.157  40.938 -47.352  1.00  0.00    -0.396 OA
ATOM     13  H   UNL     1      30.674  40.092 -47.384  1.00  0.00     0.210 HD
ENDBRANCH  11  12
ENDBRANCH   5  11
BRANCH   8  14
ATOM     14  C   UNL     1      27.840  38.369 -52.352  1.00  0.00     0.071 C 
ATOM     15  O   UNL     1      26.806  39.089 -52.272  1.00  0.00    -0.545 OA
ATOM     16  O   UNL     1      28.186  37.554 -53.254  1.00  0.00    -0.545 OA
ENDBRANCH   8  14
ENDBRANCH   1   2
BRANCH   1  17
ATOM     17  C   UNL     1      31.419  35.910 -48.611  1.00  0.00     0.286 C 
ATOM     18  C   UNL     1      30.545  34.667 -48.859  1.00  0.00     0.202 C 
ATOM     19  O   UNL     1      32.807  35.576 -48.691  1.00  0.00    -0.341 OA
ATOM     20  C   UNL     1      30.919  33.573 -47.865  1.00  0.00     0.179 C 
ATOM     21  C   UNL     1      33.192  34.599 -47.707  1.00  0.00     0.178 C 
ATOM     22  C   UNL     1      32.421  33.290 -47.912  1.00  0.00     0.177 C 
BRANCH  18  23
ATOM     23  O   UNL     1      29.145  34.945 -48.706  1.00  0.00    -0.385 OA
ATOM     24  H   UNL     1      29.054  35.449 -47.867  1.00  0.00     0.211 HD
ENDBRANCH  18  23
BRANCH  20  25
ATOM     25  O   UNL     1      30.204  32.360 -48.159  1.00  0.00    -0.387 OA
ATOM     26  H   UNL     1      29.952  32.010 -47.277  1.00  0.00     0.211 HD
ENDBRANCH  20  25
BRANCH  21  27
ATOM     27  C   UNL     1      34.703  34.382 -47.845  1.00  0.00     0.191 C 
BRANCH  27  28
ATOM     28  O   UNL     1      35.226  33.836 -46.632  1.00  0.00    -0.394 OA
ATOM     29  H   UNL     1      35.652  32.993 -46.887  1.00  0.00     0.210 HD
ENDBRANCH  27  28
ENDBRANCH  21  27
BRANCH  22  30
ATOM     30  O   UNL     1      32.748  32.326 -46.908  1.00  0.00    -0.387 OA
ATOM     31  H   UNL     1      32.353  31.488 -47.229  1.00  0.00     0.211 HD
ENDBRANCH  22  30
ENDBRANCH   1  17
TORSDOF 10
ENDMDL
MODEL 6
REMARK VINA RESULT:    -5.636      4.650      9.686
REMARK INTER + INTRA:          -8.916
REMARK INTER:                  -8.074
REMARK INTRA:                  -0.842
REMARK UNBOUND:                -0.808
REMARK SMILES O=C([O-])C1=CO[C@@H](O[C@@H]2O[C@H](CO)[C@@H](O)[C@H](O)[C@H]2O)[C@@H]2[C@@H](CO)CC[C@H]12
REMARK SMILES IDX 8 1 7 2 24 3 25 4 21 5 26 6 20 7 4 8 5 9 6 10 22 11 23 12
REMARK SMILES IDX 2 14 1 15 3 16 9 17 18 18 10 19 16 20 11 21 14 22 19 23
REMARK SMILES IDX 17 25 12 27 13 28 15 30
REMARK H PARENT 23 13 19 24 17 26 13 29 15 31
ROOT
ATOM      1  O   UNL     1      31.431  34.108 -49.962  1.00  0.00    -0.310 OA
ENDROOT
BRANCH   1   2
ATOM      2  C   UNL     1      30.361  34.793 -49.293  1.00  0.00     0.313 C 
ATOM      3  C   UNL     1      30.584  38.384 -48.079  1.00  0.00     0.007 C 
ATOM      4  C   UNL     1      31.093  38.496 -49.514  1.00  0.00     0.009 C 
ATOM      5  C   UNL     1      29.922  37.012 -48.011  1.00  0.00     0.024 C 
ATOM      6  C   UNL     1      31.196  37.058 -50.066  1.00  0.00     0.034 C 
ATOM      7  C   UNL     1      30.891  36.158 -48.847  1.00  0.00     0.071 C 
ATOM      8  C   UNL     1      30.231  36.797 -51.192  1.00  0.00     0.013 C 
ATOM      9  C   UNL     1      29.318  35.819 -51.138  1.00  0.00     0.196 C 
ATOM     10  O   UNL     1      29.193  34.905 -50.121  1.00  0.00    -0.472 OA
BRANCH   5  11
ATOM     11  C   UNL     1      29.733  36.534 -46.577  1.00  0.00     0.160 C 
BRANCH  11  12
ATOM     12  O   UNL     1      30.768  35.635 -46.199  1.00  0.00    -0.396 OA
ATOM     13  H   UNL     1      31.199  35.331 -47.019  1.00  0.00     0.210 HD
ENDBRANCH  11  12
ENDBRANCH   5  11
BRANCH   8  14
ATOM     14  C   UNL     1      30.302  37.683 -52.453  1.00  0.00     0.071 C 
ATOM     15  O   UNL     1      29.482  38.642 -52.496  1.00  0.00    -0.545 OA
ATOM     16  O   UNL     1      31.176  37.331 -53.295  1.00  0.00    -0.545 OA
ENDBRANCH   8  14
ENDBRANCH   1   2
BRANCH   1  17
ATOM     17  C   UNL     1      31.669  32.814 -49.422  1.00  0.00     0.286 C 
ATOM     18  C   UNL     1      31.900  33.017 -47.913  1.00  0.00     0.202 C 
ATOM     19  O   UNL     1      30.529  31.980 -49.651  1.00  0.00    -0.341 OA
ATOM     20  C   UNL     1      32.048  31.662 -47.231  1.00  0.00     0.179 C 
ATOM     21  C   UNL     1      30.687  30.669 -49.078  1.00  0.00     0.178 C 
ATOM     22  C   UNL     1      30.857  30.759 -47.557  1.00  0.00     0.177 C 
BRANCH  18  23
ATOM     23  O   UNL     1      33.083  33.782 -47.641  1.00  0.00    -0.385 OA
ATOM     24  H   UNL     1      32.836  34.434 -46.948  1.00  0.00     0.211 HD
ENDBRANCH  18  23
BRANCH  20  25
ATOM     25  O   UNL     1      32.138  31.823 -45.805  1.00  0.00    -0.387 OA
ATOM     26  H   UNL     1      33.002  31.421 -45.571  1.00  0.00     0.211 HD
ENDBRANCH  20  25
BRANCH  21  27
ATOM     27  C   UNL     1      29.443  29.855 -49.451  1.00  0.00     0.191 C 
BRANCH  27  28
ATOM     28  O   UNL     1      28.532  29.831 -48.349  1.00  0.00    -0.394 OA
ATOM     29  H   UNL     1      27.722  29.400 -48.689  1.00  0.00     0.210 HD
ENDBRANCH  27  28
ENDBRANCH  21  27
BRANCH  22  30
ATOM     30  O   UNL     1      31.072  29.471 -46.975  1.00  0.00    -0.387 OA
ATOM     31  H   UNL     1      32.009  29.261 -47.171  1.00  0.00     0.211 HD
ENDBRANCH  22  30
ENDBRANCH   1  17
TORSDOF 10
ENDMDL
MODEL 7
REMARK VINA RESULT:    -5.592      3.640      7.874
REMARK INTER + INTRA:          -8.851
REMARK INTER:                  -7.857
REMARK INTRA:                  -0.995
REMARK UNBOUND:                -0.808
REMARK SMILES O=C([O-])C1=CO[C@@H](O[C@@H]2O[C@H](CO)[C@@H](O)[C@H](O)[C@H]2O)[C@@H]2[C@@H](CO)CC[C@H]12
REMARK SMILES IDX 8 1 7 2 24 3 25 4 21 5 26 6 20 7 4 8 5 9 6 10 22 11 23 12
REMARK SMILES IDX 2 14 1 15 3 16 9 17 18 18 10 19 16 20 11 21 14 22 19 23
REMARK SMILES IDX 17 25 12 27 13 28 15 30
REMARK H PARENT 23 13 19 24 17 26 13 29 15 31
ROOT
ATOM      1  O   UNL     1      29.189  44.558 -52.997  1.00  0.00    -0.310 OA
ENDROOT
BRANCH   1   2
ATOM      2  C   UNL     1      30.388  44.018 -53.574  1.00  0.00     0.313 C 
ATOM      3  C   UNL     1      30.705  43.003 -57.219  1.00  0.00     0.007 C 
ATOM      4  C   UNL     1      30.091  44.397 -57.325  1.00  0.00     0.009 C 
ATOM      5  C   UNL     1      31.200  42.907 -55.780  1.00  0.00     0.024 C 
ATOM      6  C   UNL     1      29.768  44.853 -55.886  1.00  0.00     0.034 C 
ATOM      7  C   UNL     1      30.067  43.612 -55.014  1.00  0.00     0.071 C 
ATOM      8  C   UNL     1      30.595  46.036 -55.452  1.00  0.00     0.013 C 
ATOM      9  C   UNL     1      31.384  45.997 -54.371  1.00  0.00     0.196 C 
ATOM     10  O   UNL     1      31.485  44.942 -53.499  1.00  0.00    -0.472 OA
BRANCH   5  11
ATOM     11  C   UNL     1      31.453  41.468 -55.352  1.00  0.00     0.160 C 
BRANCH  11  12
ATOM     12  O   UNL     1      32.286  40.797 -56.288  1.00  0.00    -0.396 OA
ATOM     13  H   UNL     1      32.283  41.325 -57.107  1.00  0.00     0.210 HD
ENDBRANCH  11  12
ENDBRANCH   5  11
BRANCH   8  14
ATOM     14  C   UNL     1      30.522  47.337 -56.277  1.00  0.00     0.071 C 
ATOM     15  O   UNL     1      29.402  47.919 -56.288  1.00  0.00    -0.545 OA
ATOM     16  O   UNL     1      31.603  47.657 -56.850  1.00  0.00    -0.545 OA
ENDBRANCH   8  14
ENDBRANCH   1   2
BRANCH   1  17
ATOM     17  C   UNL     1      29.183  44.471 -51.577  1.00  0.00     0.286 C 
ATOM     18  C   UNL     1      28.601  45.804 -51.071  1.00  0.00     0.202 C 
ATOM     19  O   UNL     1      28.363  43.373 -51.166  1.00  0.00    -0.341 OA
ATOM     20  C   UNL     1      28.447  45.752 -49.555  1.00  0.00     0.179 C 
ATOM     21  C   UNL     1      28.271  43.265 -49.734  1.00  0.00     0.178 C 
ATOM     22  C   UNL     1      27.636  44.526 -49.135  1.00  0.00     0.177 C 
BRANCH  18  23
ATOM     23  O   UNL     1      29.440  46.922 -51.394  1.00  0.00    -0.385 OA
ATOM     24  H   UNL     1      29.988  47.095 -50.596  1.00  0.00     0.211 HD
ENDBRANCH  18  23
BRANCH  20  25
ATOM     25  O   UNL     1      27.789  46.937 -49.075  1.00  0.00    -0.387 OA
ATOM     26  H   UNL     1      28.399  47.667 -49.319  1.00  0.00     0.211 HD
ENDBRANCH  20  25
BRANCH  21  27
ATOM     27  C   UNL     1      27.434  42.020 -49.422  1.00  0.00     0.191 C 
BRANCH  27  28
ATOM     28  O   UNL     1      27.617  41.644 -48.055  1.00  0.00    -0.394 OA
ATOM     29  H   UNL     1      28.445  41.124 -48.035  1.00  0.00     0.210 HD
ENDBRANCH  27  28
ENDBRANCH  21  27
BRANCH  22  30
ATOM     30  O   UNL     1      27.588  44.462 -47.707  1.00  0.00    -0.387 OA
ATOM     31  H   UNL     1      27.425  45.385 -47.421  1.00  0.00     0.211 HD
ENDBRANCH  22  30
ENDBRANCH   1  17
TORSDOF 10
ENDMDL
MODEL 8
REMARK VINA RESULT:    -5.569      2.842      5.287
REMARK INTER + INTRA:          -8.818
REMARK INTER:                  -8.280
REMARK INTRA:                  -0.538
REMARK UNBOUND:                -0.808
REMARK SMILES O=C([O-])C1=CO[C@@H](O[C@@H]2O[C@H](CO)[C@@H](O)[C@H](O)[C@H]2O)[C@@H]2[C@@H](CO)CC[C@H]12
REMARK SMILES IDX 8 1 7 2 24 3 25 4 21 5 26 6 20 7 4 8 5 9 6 10 22 11 23 12
REMARK SMILES IDX 2 14 1 15 3 16 9 17 18 18 10 19 16 20 11 21 14 22 19 23
REMARK SMILES IDX 17 25 12 27 13 28 15 30
REMARK H PARENT 23 13 19 24 17 26 13 29 15 31
ROOT
ATOM      1  O   UNL     1      28.666  38.997 -49.015  1.00  0.00    -0.310 OA
ENDROOT
BRANCH   1   2
ATOM      2  C   UNL     1      29.108  37.666 -49.323  1.00  0.00     0.313 C 
ATOM      3  C   UNL     1      31.049  35.473 -46.905  1.00  0.00     0.007 C 
ATOM      4  C   UNL     1      29.889  35.961 -46.039  1.00  0.00     0.009 C 
ATOM      5  C   UNL     1      30.629  35.804 -48.334  1.00  0.00     0.024 C 
ATOM      6  C   UNL     1      29.109  36.996 -46.878  1.00  0.00     0.034 C 
ATOM      7  C   UNL     1      29.965  37.180 -48.152  1.00  0.00     0.071 C 
ATOM      8  C   UNL     1      27.716  36.536 -47.220  1.00  0.00     0.013 C 
ATOM      9  C   UNL     1      27.289  36.429 -48.485  1.00  0.00     0.196 C 
ATOM     10  O   UNL     1      28.009  36.784 -49.597  1.00  0.00    -0.472 OA
BRANCH   5  11
ATOM     11  C   UNL     1      31.807  35.792 -49.298  1.00  0.00     0.160 C 
BRANCH  11  12
ATOM     12  O   UNL     1      33.009  35.430 -48.630  1.00  0.00    -0.396 OA
ATOM     13  H   UNL     1      33.351  34.629 -49.067  1.00  0.00     0.210 HD
ENDBRANCH  11  12
ENDBRANCH   5  11
BRANCH   8  14
ATOM     14  C   UNL     1      26.747  36.183 -46.073  1.00  0.00     0.071 C 
ATOM     15  O   UNL     1      27.212  35.427 -45.175  1.00  0.00    -0.545 OA
ATOM     16  O   UNL     1      25.597  36.697 -46.179  1.00  0.00    -0.545 OA
ENDBRANCH   8  14
ENDBRANCH   1   2
BRANCH   1  17
ATOM     17  C   UNL     1      28.967  39.923 -50.053  1.00  0.00     0.286 C 
ATOM     18  C   UNL     1      29.984  40.913 -49.458  1.00  0.00     0.202 C 
ATOM     19  O   UNL     1      29.530  39.229 -51.169  1.00  0.00    -0.341 OA
ATOM     20  C   UNL     1      30.454  41.877 -50.542  1.00  0.00     0.179 C 
ATOM     21  C   UNL     1      29.908  40.121 -52.234  1.00  0.00     0.178 C 
ATOM     22  C   UNL     1      30.976  41.111 -51.758  1.00  0.00     0.177 C 
BRANCH  18  23
ATOM     23  O   UNL     1      29.428  41.688 -48.386  1.00  0.00    -0.385 OA
ATOM     24  H   UNL     1      30.081  41.652 -47.652  1.00  0.00     0.211 HD
ENDBRANCH  18  23
BRANCH  20  25
ATOM     25  O   UNL     1      31.498  42.730 -50.040  1.00  0.00    -0.387 OA
ATOM     26  H   UNL     1      31.611  43.409 -50.740  1.00  0.00     0.211 HD
ENDBRANCH  20  25
BRANCH  21  27
ATOM     27  C   UNL     1      30.425  39.258 -53.391  1.00  0.00     0.191 C 
BRANCH  27  28
ATOM     28  O   UNL     1      30.481  40.038 -54.588  1.00  0.00    -0.394 OA
ATOM     29  H   UNL     1      30.299  40.958 -54.310  1.00  0.00     0.210 HD
ENDBRANCH  27  28
ENDBRANCH  21  27
BRANCH  22  30
ATOM     30  O   UNL     1      31.324  42.043 -52.785  1.00  0.00    -0.387 OA
ATOM     31  H   UNL     1      30.905  41.687 -53.597  1.00  0.00     0.211 HD
ENDBRANCH  22  30
ENDBRANCH   1  17
TORSDOF 10
ENDMDL
MODEL 9
REMARK VINA RESULT:    -5.490      1.980      7.377
REMARK INTER + INTRA:          -8.705
REMARK INTER:                  -7.902
REMARK INTRA:                  -0.804
REMARK UNBOUND:                -0.808
REMARK SMILES O=C([O-])C1=CO[C@@H](O[C@@H]2O[C@H](CO)[C@@H](O)[C@H](O)[C@H]2O)[C@@H]2[C@@H](CO)CC[C@H]12
REMARK SMILES IDX 8 1 7 2 24 3 25 4 21 5 26 6 20 7 4 8 5 9 6 10 22 11 23 12
REMARK SMILES IDX 2 14 1 15 3 16 9 17 18 18 10 19 16 20 11 21 14 22 19 23
REMARK SMILES IDX 17 25 12 27 13 28 15 30
REMARK H PARENT 23 13 19 24 17 26 13 29 15 31
ROOT
ATOM      1  O   UNL     1      30.118  39.174 -50.379  1.00  0.00    -0.310 OA
ENDROOT
BRANCH   1   2
ATOM      2  C   UNL     1      30.981  40.286 -50.660  1.00  0.00     0.313 C 
ATOM      3  C   UNL     1      29.998  43.222 -52.858  1.00  0.00     0.007 C 
ATOM      4  C   UNL     1      28.799  43.105 -51.919  1.00  0.00     0.009 C 
ATOM      5  C   UNL     1      31.084  42.376 -52.202  1.00  0.00     0.024 C 
ATOM      6  C   UNL     1      29.017  41.833 -51.071  1.00  0.00     0.034 C 
ATOM      7  C   UNL     1      30.274  41.175 -51.684  1.00  0.00     0.071 C 
ATOM      8  C   UNL     1      29.218  42.137 -49.609  1.00  0.00     0.013 C 
ATOM      9  C   UNL     1      30.319  41.758 -48.947  1.00  0.00     0.196 C 
ATOM     10  O   UNL     1      31.338  41.004 -49.468  1.00  0.00    -0.472 OA
BRANCH   5  11
ATOM     11  C   UNL     1      32.199  42.014 -53.175  1.00  0.00     0.160 C 
BRANCH  11  12
ATOM     12  O   UNL     1      32.799  43.183 -53.719  1.00  0.00    -0.396 OA
ATOM     13  H   UNL     1      32.916  43.029 -54.674  1.00  0.00     0.210 HD
ENDBRANCH  11  12
ENDBRANCH   5  11
BRANCH   8  14
ATOM     14  C   UNL     1      28.116  42.904 -48.851  1.00  0.00     0.071 C 
ATOM     15  O   UNL     1      28.089  44.153 -49.035  1.00  0.00    -0.545 OA
ATOM     16  O   UNL     1      27.373  42.179 -48.128  1.00  0.00    -0.545 OA
ENDBRANCH   8  14
ENDBRANCH   1   2
BRANCH   1  17
ATOM     17  C   UNL     1      30.473  38.500 -49.177  1.00  0.00     0.286 C 
ATOM     18  C   UNL     1      29.148  38.064 -48.526  1.00  0.00     0.202 C 
ATOM     19  O   UNL     1      31.283  37.361 -49.485  1.00  0.00    -0.341 OA
ATOM     20  C   UNL     1      29.438  37.227 -47.285  1.00  0.00     0.179 C 
ATOM     21  C   UNL     1      31.630  36.603 -48.312  1.00  0.00     0.178 C 
ATOM     22  C   UNL     1      30.370  36.064 -47.624  1.00  0.00     0.177 C 
BRANCH  18  23
ATOM     23  O   UNL     1      28.342  39.183 -48.128  1.00  0.00    -0.385 OA
ATOM     24  H   UNL     1      28.581  39.923 -48.730  1.00  0.00     0.211 HD
ENDBRANCH  18  23
BRANCH  20  25
ATOM     25  O   UNL     1      28.217  36.705 -46.733  1.00  0.00    -0.387 OA
ATOM     26  H   UNL     1      27.666  37.501 -46.572  1.00  0.00     0.211 HD
ENDBRANCH  20  25
BRANCH  21  27
ATOM     27  C   UNL     1      32.550  35.463 -48.760  1.00  0.00     0.191 C 
BRANCH  27  28
ATOM     28  O   UNL     1      33.325  35.002 -47.651  1.00  0.00    -0.394 OA
ATOM     29  H   UNL     1      33.389  35.765 -47.041  1.00  0.00     0.210 HD
ENDBRANCH  27  28
ENDBRANCH  21  27
BRANCH  22  30
ATOM     30  O   UNL     1      30.691  35.355 -46.424  1.00  0.00    -0.387 OA
ATOM     31  H   UNL     1      30.877  36.055 -45.763  1.00  0.00     0.211 HD
ENDBRANCH  22  30
ENDBRANCH   1  17
TORSDOF 10
ENDMDL
