MODEL 1
REMARK VINA RESULT:    -4.227      0.000      0.000
REMARK INTER + INTRA:          -5.466
REMARK INTER:                  -5.092
REMARK INTRA:                  -0.374
REMARK UNBOUND:                -0.374
REMARK SMILES O=C1O[C@H]([C@@H](O)CO)C([O-])=C1O
REMARK SMILES IDX 5 1 7 2 8 3 4 5 9 6 3 7 11 8 2 9 1 10 10 11 12 12 6 14
REMARK H PARENT 8 4 12 13 6 15
ROOT
ATOM      1  C   UNL     1      31.563  42.733 -54.106  1.00  0.00     0.184 C 
ENDROOT
BRANCH   1   2
ATOM      2  C   UNL     1      31.700  41.206 -54.130  1.00  0.00     0.192 C 
BRANCH   2   3
ATOM      3  O   UNL     1      32.338  40.820 -55.359  1.00  0.00    -0.394 OA
ATOM      4  H   UNL     1      32.104  41.548 -55.972  1.00  0.00     0.210 HD
ENDBRANCH   2   3
ENDBRANCH   1   2
BRANCH   1   5
ATOM      5  C   UNL     1      30.504  43.257 -53.106  1.00  0.00     0.227 C 
ATOM      6  C   UNL     1      30.862  44.541 -52.404  1.00  0.00    -0.037 C 
ATOM      7  O   UNL     1      30.297  42.298 -52.053  1.00  0.00    -0.450 OA
ATOM      8  C   UNL     1      30.825  44.315 -51.091  1.00  0.00     0.193 C 
ATOM      9  C   UNL     1      30.465  42.911 -50.842  1.00  0.00     0.373 C 
ATOM     10  O   UNL     1      30.343  42.359 -49.761  1.00  0.00    -0.243 OA
ATOM     11  O   UNL     1      31.121  45.552 -53.111  1.00  0.00    -0.870 OA
BRANCH   8  12
ATOM     12  O   UNL     1      31.097  45.271 -50.150  1.00  0.00    -0.502 OA
ATOM     13  H   UNL     1      31.535  45.949 -50.710  1.00  0.00     0.293 HD
ENDBRANCH   8  12
ENDBRANCH   1   5
BRANCH   1  14
ATOM     14  O   UNL     1      32.868  43.286 -53.826  1.00  0.00    -0.387 OA
ATOM     15  H   UNL     1      32.736  44.259 -53.990  1.00  0.00     0.211 HD
ENDBRANCH   1  14
TORSDOF 5
ENDMDL
MODEL 2
REMARK VINA RESULT:    -4.214      9.948     11.558
REMARK INTER + INTRA:          -5.451
REMARK INTER:                  -4.844
REMARK INTRA:                  -0.606
REMARK UNBOUND:                -0.374
REMARK SMILES O=C1O[C@H]([C@@H](O)CO)C([O-])=C1O
REMARK SMILES IDX 5 1 7 2 8 3 4 5 9 6 3 7 11 8 2 9 1 10 10 11 12 12 6 14
REMARK H PARENT 8 4 12 13 6 15
ROOT
ATOM      1  C   UNL     1      32.069  34.982 -48.153  1.00  0.00     0.184 C 
ENDROOT
BRANCH   1   2
ATOM      2  C   UNL     1      30.648  35.144 -47.602  1.00  0.00     0.192 C 
BRANCH   2   3
ATOM      3  O   UNL     1      30.664  34.859 -46.194  1.00  0.00    -0.394 OA
ATOM      4  H   UNL     1      31.406  34.225 -46.101  1.00  0.00     0.210 HD
ENDBRANCH   2   3
ENDBRANCH   1   2
BRANCH   1   5
ATOM      5  C   UNL     1      32.487  33.513 -48.404  1.00  0.00     0.227 C 
ATOM      6  C   UNL     1      31.491  32.682 -49.171  1.00  0.00    -0.037 C 
ATOM      7  O   UNL     1      32.664  32.826 -47.152  1.00  0.00    -0.450 OA
ATOM      8  C   UNL     1      31.176  31.625 -48.423  1.00  0.00     0.193 C 
ATOM      9  C   UNL     1      31.906  31.688 -47.148  1.00  0.00     0.373 C 
ATOM     10  O   UNL     1      31.856  30.889 -46.227  1.00  0.00    -0.243 OA
ATOM     11  O   UNL     1      31.137  33.083 -50.312  1.00  0.00    -0.870 OA
BRANCH   8  12
ATOM     12  O   UNL     1      30.293  30.655 -48.816  1.00  0.00    -0.502 OA
ATOM     13  H   UNL     1      30.891  29.877 -48.845  1.00  0.00     0.293 HD
ENDBRANCH   8  12
ENDBRANCH   1   5
BRANCH   1  14
ATOM     14  O   UNL     1      32.164  35.769 -49.361  1.00  0.00    -0.387 OA
ATOM     15  H   UNL     1      32.699  35.185 -49.964  1.00  0.00     0.211 HD
ENDBRANCH   1  14
TORSDOF 5
ENDMDL
MODEL 3
REMARK VINA RESULT:    -4.211     10.826     12.201
REMARK INTER + INTRA:          -5.446
REMARK INTER:                  -5.113
REMARK INTRA:                  -0.333
REMARK UNBOUND:                -0.374
REMARK SMILES O=C1O[C@H]([C@@H](O)CO)C([O-])=C1O
REMARK SMILES IDX 5 1 7 2 8 3 4 5 9 6 3 7 11 8 2 9 1 10 10 11 12 12 6 14
REMARK H PARENT 8 4 12 13 6 15
ROOT
ATOM      1  C   UNL     1      25.069  48.205 -42.629  1.00  0.00     0.184 C 
ENDROOT
BRANCH   1   2
ATOM      2  C   UNL     1      24.972  46.695 -42.874  1.00  0.00     0.192 C 
BRANCH   2   3
ATOM      3  O   UNL     1      23.739  46.215 -42.313  1.00  0.00    -0.394 OA
ATOM      4  H   UNL     1      23.765  46.551 -41.392  1.00  0.00     0.210 HD
ENDBRANCH   2   3
ENDBRANCH   1   2
BRANCH   1   5
ATOM      5  C   UNL     1      26.504  48.709 -42.343  1.00  0.00     0.227 C 
ATOM      6  C   UNL     1      27.550  48.269 -43.335  1.00  0.00    -0.037 C 
ATOM      7  O   UNL     1      26.962  48.214 -41.071  1.00  0.00    -0.450 OA
ATOM      8  C   UNL     1      28.504  47.623 -42.665  1.00  0.00     0.193 C 
ATOM      9  C   UNL     1      28.160  47.579 -41.236  1.00  0.00     0.373 C 
ATOM     10  O   UNL     1      28.804  47.064 -40.336  1.00  0.00    -0.243 OA
ATOM     11  O   UNL     1      27.376  48.559 -44.549  1.00  0.00    -0.870 OA
BRANCH   8  12
ATOM     12  O   UNL     1      29.615  47.086 -43.259  1.00  0.00    -0.502 OA
ATOM     13  H   UNL     1      29.202  46.365 -43.783  1.00  0.00     0.293 HD
ENDBRANCH   8  12
ENDBRANCH   1   5
BRANCH   1  14
ATOM     14  O   UNL     1      24.496  48.874 -43.774  1.00  0.00    -0.387 OA
ATOM     15  H   UNL     1      24.501  48.164 -44.471  1.00  0.00     0.211 HD
ENDBRANCH   1  14
TORSDOF 5
ENDMDL
MODEL 4
REMARK VINA RESULT:    -4.175      2.620      3.636
REMARK INTER + INTRA:          -5.403
REMARK INTER:                  -4.899
REMARK INTRA:                  -0.505
REMARK UNBOUND:                -0.374
REMARK SMILES O=C1O[C@H]([C@@H](O)CO)C([O-])=C1O
REMARK SMILES IDX 5 1 7 2 8 3 4 5 9 6 3 7 11 8 2 9 1 10 10 11 12 12 6 14
REMARK H PARENT 8 4 12 13 6 15
ROOT
ATOM      1  C   UNL     1      30.976  46.584 -55.743  1.00  0.00     0.184 C 
ENDROOT
BRANCH   1   2
ATOM      2  C   UNL     1      31.334  46.176 -57.177  1.00  0.00     0.192 C 
BRANCH   2   3
ATOM      3  O   UNL     1      32.630  45.554 -57.169  1.00  0.00    -0.394 OA
ATOM      4  H   UNL     1      33.245  46.316 -57.165  1.00  0.00     0.210 HD
ENDBRANCH   2   3
ENDBRANCH   1   2
BRANCH   1   5
ATOM      5  C   UNL     1      30.473  45.416 -54.860  1.00  0.00     0.227 C 
ATOM      6  C   UNL     1      30.456  45.691 -53.378  1.00  0.00    -0.037 C 
ATOM      7  O   UNL     1      31.327  44.269 -55.019  1.00  0.00    -0.450 OA
ATOM      8  C   UNL     1      31.204  44.764 -52.781  1.00  0.00     0.193 C 
ATOM      9  C   UNL     1      31.760  43.852 -53.791  1.00  0.00     0.373 C 
ATOM     10  O   UNL     1      32.490  42.893 -53.600  1.00  0.00    -0.243 OA
ATOM     11  O   UNL     1      29.788  46.677 -52.965  1.00  0.00    -0.870 OA
BRANCH   8  12
ATOM     12  O   UNL     1      31.407  44.712 -51.428  1.00  0.00    -0.502 OA
ATOM     13  H   UNL     1      32.387  44.775 -51.396  1.00  0.00     0.293 HD
ENDBRANCH   8  12
ENDBRANCH   1   5
BRANCH   1  14
ATOM     14  O   UNL     1      32.138  47.218 -55.163  1.00  0.00    -0.387 OA
ATOM     15  H   UNL     1      32.567  47.653 -55.948  1.00  0.00     0.211 HD
ENDBRANCH   1  14
TORSDOF 5
ENDMDL
MODEL 5
REMARK VINA RESULT:    -4.159      1.761      3.075
REMARK INTER + INTRA:          -5.384
REMARK INTER:                  -5.065
REMARK INTRA:                  -0.319
REMARK UNBOUND:                -0.374
REMARK SMILES O=C1O[C@H]([C@@H](O)CO)C([O-])=C1O
REMARK SMILES IDX 5 1 7 2 8 3 4 5 9 6 3 7 11 8 2 9 1 10 10 11 12 12 6 14
REMARK H PARENT 8 4 12 13 6 15
ROOT
ATOM      1  C   UNL     1      30.650  43.940 -52.174  1.00  0.00     0.184 C 
ENDROOT
BRANCH   1   2
ATOM      2  C   UNL     1      31.282  44.011 -53.569  1.00  0.00     0.192 C 
BRANCH   2   3
ATOM      3  O   UNL     1      32.616  43.483 -53.498  1.00  0.00    -0.394 OA
ATOM      4  H   UNL     1      33.151  44.159 -53.966  1.00  0.00     0.210 HD
ENDBRANCH   2   3
ENDBRANCH   1   2
BRANCH   1   5
ATOM      5  C   UNL     1      30.529  42.505 -51.606  1.00  0.00     0.227 C 
ATOM      6  C   UNL     1      29.367  42.277 -50.674  1.00  0.00    -0.037 C 
ATOM      7  O   UNL     1      31.699  42.175 -50.836  1.00  0.00    -0.450 OA
ATOM      8  C   UNL     1      29.852  41.835 -49.515  1.00  0.00     0.193 C 
ATOM      9  C   UNL     1      31.319  41.756 -49.592  1.00  0.00     0.373 C 
ATOM     10  O   UNL     1      32.087  41.396 -48.714  1.00  0.00    -0.243 OA
ATOM     11  O   UNL     1      28.207  42.520 -51.102  1.00  0.00    -0.870 OA
BRANCH   8  12
ATOM     12  O   UNL     1      29.070  41.524 -48.435  1.00  0.00    -0.502 OA
ATOM     13  H   UNL     1      29.651  40.877 -47.979  1.00  0.00     0.293 HD
ENDBRANCH   8  12
ENDBRANCH   1   5
BRANCH   1  14
ATOM     14  O   UNL     1      31.425  44.788 -51.297  1.00  0.00    -0.387 OA
ATOM     15  H   UNL     1      30.786  45.518 -51.074  1.00  0.00     0.211 HD
ENDBRANCH   1  14
TORSDOF 5
ENDMDL
MODEL 6
REMARK VINA RESULT:    -4.097      2.725      3.613
REMARK INTER + INTRA:          -5.310
REMARK INTER:                  -4.678
REMARK INTRA:                  -0.632
REMARK UNBOUND:                -0.374
REMARK SMILES O=C1O[C@H]([C@@H](O)CO)C([O-])=C1O
REMARK SMILES IDX 5 1 7 2 8 3 4 5 9 6 3 7 11 8 2 9 1 10 10 11 12 12 6 14
REMARK H PARENT 8 4 12 13 6 15
ROOT
ATOM      1  C   UNL     1      30.572  42.051 -50.615  1.00  0.00     0.184 C 
ENDROOT
BRANCH   1   2
ATOM      2  C   UNL     1      29.833  40.994 -49.786  1.00  0.00     0.192 C 
BRANCH   2   3
ATOM      3  O   UNL     1      29.777  41.437 -48.420  1.00  0.00    -0.394 OA
ATOM      4  H   UNL     1      28.931  41.062 -48.097  1.00  0.00     0.210 HD
ENDBRANCH   2   3
ENDBRANCH   1   2
BRANCH   1   5
ATOM      5  C   UNL     1      29.698  43.261 -51.024  1.00  0.00     0.227 C 
ATOM      6  C   UNL     1      30.387  44.600 -50.974  1.00  0.00    -0.037 C 
ATOM      7  O   UNL     1      28.573  43.384 -50.134  1.00  0.00    -0.450 OA
ATOM      8  C   UNL     1      29.689  45.390 -50.159  1.00  0.00     0.193 C 
ATOM      9  C   UNL     1      28.538  44.650 -49.621  1.00  0.00     0.373 C 
ATOM     10  O   UNL     1      27.692  45.062 -48.843  1.00  0.00    -0.243 OA
ATOM     11  O   UNL     1      31.434  44.754 -51.658  1.00  0.00    -0.870 OA
BRANCH   8  12
ATOM     12  O   UNL     1      30.033  46.686 -49.883  1.00  0.00    -0.502 OA
ATOM     13  H   UNL     1      29.744  46.748 -48.946  1.00  0.00     0.293 HD
ENDBRANCH   8  12
ENDBRANCH   1   5
BRANCH   1  14
ATOM     14  O   UNL     1      31.730  42.472 -49.860  1.00  0.00    -0.387 OA
ATOM     15  H   UNL     1      31.740  43.457 -50.000  1.00  0.00     0.211 HD
ENDBRANCH   1  14
TORSDOF 5
ENDMDL
MODEL 7
REMARK VINA RESULT:    -4.072      2.817      4.587
REMARK INTER + INTRA:          -5.279
REMARK INTER:                  -4.652
REMARK INTRA:                  -0.627
REMARK UNBOUND:                -0.374
REMARK SMILES O=C1O[C@H]([C@@H](O)CO)C([O-])=C1O
REMARK SMILES IDX 5 1 7 2 8 3 4 5 9 6 3 7 11 8 2 9 1 10 10 11 12 12 6 14
REMARK H PARENT 8 4 12 13 6 15
ROOT
ATOM      1  C   UNL     1      29.199  41.039 -49.488  1.00  0.00     0.184 C 
ENDROOT
BRANCH   1   2
ATOM      2  C   UNL     1      27.770  40.964 -48.940  1.00  0.00     0.192 C 
BRANCH   2   3
ATOM      3  O   UNL     1      27.629  41.932 -47.887  1.00  0.00    -0.394 OA
ATOM      4  H   UNL     1      26.787  41.674 -47.455  1.00  0.00     0.210 HD
ENDBRANCH   2   3
ENDBRANCH   1   2
BRANCH   1   5
ATOM      5  C   UNL     1      29.410  42.137 -50.558  1.00  0.00     0.227 C 
ATOM      6  C   UNL     1      30.751  42.825 -50.519  1.00  0.00    -0.037 C 
ATOM      7  O   UNL     1      28.444  43.190 -50.386  1.00  0.00    -0.450 OA
ATOM      8  C   UNL     1      30.537  44.131 -50.372  1.00  0.00     0.193 C 
ATOM      9  C   UNL     1      29.092  44.390 -50.292  1.00  0.00     0.373 C 
ATOM     10  O   UNL     1      28.539  45.469 -50.153  1.00  0.00    -0.243 OA
ATOM     11  O   UNL     1      31.786  42.113 -50.624  1.00  0.00    -0.870 OA
BRANCH   8  12
ATOM     12  O   UNL     1      31.541  45.060 -50.300  1.00  0.00    -0.502 OA
ATOM     13  H   UNL     1      32.262  44.509 -49.923  1.00  0.00     0.293 HD
ENDBRANCH   8  12
ENDBRANCH   1   5
BRANCH   1  14
ATOM     14  O   UNL     1      30.092  41.220 -48.366  1.00  0.00    -0.387 OA
ATOM     15  H   UNL     1      30.755  41.875 -48.714  1.00  0.00     0.211 HD
ENDBRANCH   1  14
TORSDOF 5
ENDMDL
MODEL 8
REMARK VINA RESULT:    -4.063      1.766      4.723
REMARK INTER + INTRA:          -5.268
REMARK INTER:                  -4.687
REMARK INTRA:                  -0.581
REMARK UNBOUND:                -0.374
REMARK SMILES O=C1O[C@H]([C@@H](O)CO)C([O-])=C1O
REMARK SMILES IDX 5 1 7 2 8 3 4 5 9 6 3 7 11 8 2 9 1 10 10 11 12 12 6 14
REMARK H PARENT 8 4 12 13 6 15
ROOT
ATOM      1  C   UNL     1      29.696  45.055 -50.479  1.00  0.00     0.184 C 
ENDROOT
BRANCH   1   2
ATOM      2  C   UNL     1      28.766  46.272 -50.423  1.00  0.00     0.192 C 
BRANCH   2   3
ATOM      3  O   UNL     1      29.525  47.447 -50.752  1.00  0.00    -0.394 OA
ATOM      4  H   UNL     1      29.004  48.172 -50.347  1.00  0.00     0.210 HD
ENDBRANCH   2   3
ENDBRANCH   1   2
BRANCH   1   5
ATOM      5  C   UNL     1      29.774  44.381 -51.870  1.00  0.00     0.227 C 
ATOM      6  C   UNL     1      31.050  43.630 -52.151  1.00  0.00    -0.037 C 
ATOM      7  O   UNL     1      29.687  45.374 -52.909  1.00  0.00    -0.450 OA
ATOM      8  C   UNL     1      31.593  44.142 -53.255  1.00  0.00     0.193 C 
ATOM      9  C   UNL     1      30.750  45.238 -53.756  1.00  0.00     0.373 C 
ATOM     10  O   UNL     1      30.946  45.931 -54.742  1.00  0.00    -0.243 OA
ATOM     11  O   UNL     1      31.381  42.705 -51.361  1.00  0.00    -0.870 OA
BRANCH   8  12
ATOM     12  O   UNL     1      32.765  43.693 -53.802  1.00  0.00    -0.502 OA
ATOM     13  H   UNL     1      33.296  44.520 -53.780  1.00  0.00     0.293 HD
ENDBRANCH   8  12
ENDBRANCH   1   5
BRANCH   1  14
ATOM     14  O   UNL     1      31.002  45.478 -50.026  1.00  0.00    -0.387 OA
ATOM     15  H   UNL     1      30.787  46.085 -49.268  1.00  0.00     0.211 HD
ENDBRANCH   1  14
TORSDOF 5
ENDMDL
MODEL 9
REMARK VINA RESULT:    -4.060      1.335      1.932
REMARK INTER + INTRA:          -5.265
REMARK INTER:                  -4.725
REMARK INTRA:                  -0.540
REMARK UNBOUND:                -0.374
REMARK SMILES O=C1O[C@H]([C@@H](O)CO)C([O-])=C1O
REMARK SMILES IDX 5 1 7 2 8 3 4 5 9 6 3 7 11 8 2 9 1 10 10 11 12 12 6 14
REMARK H PARENT 8 4 12 13 6 15
ROOT
ATOM      1  C   UNL     1      31.421  44.000 -54.023  1.00  0.00     0.184 C 
ENDROOT
BRANCH   1   2
ATOM      2  C   UNL     1      31.131  43.452 -55.425  1.00  0.00     0.192 C 
BRANCH   2   3
ATOM      3  O   UNL     1      31.849  42.219 -55.596  1.00  0.00    -0.394 OA
ATOM      4  H   UNL     1      31.300  41.570 -55.107  1.00  0.00     0.210 HD
ENDBRANCH   2   3
ENDBRANCH   1   2
BRANCH   1   5
ATOM      5  C   UNL     1      30.462  43.475 -52.927  1.00  0.00     0.227 C 
ATOM      6  C   UNL     1      30.966  43.608 -51.513  1.00  0.00    -0.037 C 
ATOM      7  O   UNL     1      30.222  42.067 -53.109  1.00  0.00    -0.450 OA
ATOM      8  C   UNL     1      30.971  42.394 -50.964  1.00  0.00     0.193 C 
ATOM      9  C   UNL     1      30.501  41.406 -51.947  1.00  0.00     0.373 C 
ATOM     10  O   UNL     1      30.383  40.201 -51.787  1.00  0.00    -0.243 OA
ATOM     11  O   UNL     1      31.278  44.757 -51.100  1.00  0.00    -0.870 OA
BRANCH   8  12
ATOM     12  O   UNL     1      31.372  42.146 -49.679  1.00  0.00    -0.502 OA
ATOM     13  H   UNL     1      32.034  41.437 -49.836  1.00  0.00     0.293 HD
ENDBRANCH   8  12
ENDBRANCH   1   5
BRANCH   1  14
ATOM     14  O   UNL     1      32.797  43.693 -53.707  1.00  0.00    -0.387 OA
ATOM     15  H   UNL     1      32.714  42.929 -53.074  1.00  0.00     0.211 HD
ENDBRANCH   1  14
TORSDOF 5
ENDMDL
