MODEL 1
REMARK VINA RESULT:    -6.486      0.000      0.000
REMARK INTER + INTRA:         -12.257
REMARK INTER:                 -10.846
REMARK INTRA:                  -1.411
REMARK UNBOUND:                -1.411
REMARK SMILES C[C@@H]1O[C@@H](OC[C@H]2O[C@@H](OCC(O)c3ccc(O)c(O)c3)[C@H](O)[C@@H](O)[C@@H]2O)[C@H](O)[C@H](O)[C@H]1O
REMARK SMILES IDX 7 1 26 2 24 3 22 4 9 5 8 6 6 7 5 8 4 9 2 10 32 11 3 12 30 13
REMARK SMILES IDX 28 14 1 15 33 16 31 18 29 20 27 22 25 24 10 26 11 27 12 28
REMARK SMILES IDX 14 29 21 30 15 31 19 32 16 33 17 34 20 35 18 37 13 39 23 41
REMARK H PARENT 33 17 31 19 29 21 27 23 25 25 20 36 18 38 13 40 23 42
ROOT
ATOM      1  C   UNL     1      29.535  38.961 -51.286  1.00  0.00     0.178 C 
ATOM      2  C   UNL     1      28.722  39.837 -50.322  1.00  0.00     0.177 C 
ATOM      3  C   UNL     1      28.418  39.056 -49.045  1.00  0.00     0.179 C 
ATOM      4  C   UNL     1      29.703  38.502 -48.443  1.00  0.00     0.202 C 
ATOM      5  C   UNL     1      30.459  37.678 -49.503  1.00  0.00     0.282 C 
ATOM      6  O   UNL     1      30.741  38.490 -50.645  1.00  0.00    -0.341 OA
ENDROOT
BRANCH   1   7
ATOM      7  C   UNL     1      29.918  39.759 -52.544  1.00  0.00     0.198 C 
BRANCH   7   8
ATOM      8  O   UNL     1      29.971  41.152 -52.215  1.00  0.00    -0.347 OA
BRANCH   8   9
ATOM      9  C   UNL     1      31.306  41.645 -52.080  1.00  0.00     0.281 C 
ATOM     10  C   UNL     1      30.582  43.900 -51.706  1.00  0.00     0.150 C 
ATOM     11  C   UNL     1      31.202  44.390 -53.026  1.00  0.00     0.174 C 
ATOM     12  O   UNL     1      31.300  42.776 -51.194  1.00  0.00    -0.344 OA
ATOM     13  C   UNL     1      31.238  43.231 -54.032  1.00  0.00     0.179 C 
ATOM     14  C   UNL     1      31.939  42.009 -53.439  1.00  0.00     0.202 C 
ATOM     15  C   UNL     1      30.611  44.982 -50.632  1.00  0.00     0.041 C 
BRANCH  11  16
ATOM     16  O   UNL     1      30.459  45.489 -53.592  1.00  0.00    -0.388 OA
ATOM     17  H   UNL     1      30.748  45.549 -54.523  1.00  0.00     0.211 HD
ENDBRANCH  11  16
BRANCH  13  18
ATOM     18  O   UNL     1      31.947  43.640 -55.216  1.00  0.00    -0.387 OA
ATOM     19  H   UNL     1      31.569  43.111 -55.946  1.00  0.00     0.211 HD
ENDBRANCH  13  18
BRANCH  14  20
ATOM     20  O   UNL     1      33.342  42.296 -53.303  1.00  0.00    -0.385 OA
ATOM     21  H   UNL     1      33.647  42.476 -54.217  1.00  0.00     0.211 HD
ENDBRANCH  14  20
ENDBRANCH   8   9
ENDBRANCH   7   8
ENDBRANCH   1   7
BRANCH   2  22
ATOM     22  O   UNL     1      27.492  40.258 -50.915  1.00  0.00    -0.387 OA
ATOM     23  H   UNL     1      27.331  41.157 -50.563  1.00  0.00     0.211 HD
ENDBRANCH   2  22
BRANCH   3  24
ATOM     24  O   UNL     1      27.760  39.925 -48.110  1.00  0.00    -0.387 OA
ATOM     25  H   UNL     1      27.029  39.391 -47.736  1.00  0.00     0.211 HD
ENDBRANCH   3  24
BRANCH   5  26
ATOM     26  O   UNL     1      31.675  37.256 -48.878  1.00  0.00    -0.347 OA
BRANCH  26  27
ATOM     27  C   UNL     1      32.103  35.934 -49.224  1.00  0.00     0.200 C 
BRANCH  27  28
ATOM     28  C   UNL     1      32.127  34.906 -48.072  1.00  0.00     0.170 C 
BRANCH  28  29
ATOM     29  C   UNL     1      31.648  33.494 -48.357  1.00  0.00    -0.013 A 
ATOM     30  C   UNL     1      31.852  32.509 -47.371  1.00  0.00     0.056 A 
ATOM     31  C   UNL     1      31.043  33.107 -49.565  1.00  0.00     0.010 A 
ATOM     32  C   UNL     1      31.429  31.201 -47.580  1.00  0.00     0.157 A 
ATOM     33  C   UNL     1      30.639  31.784 -49.779  1.00  0.00     0.050 A 
ATOM     34  C   UNL     1      30.835  30.842 -48.782  1.00  0.00     0.157 A 
BRANCH  32  35
ATOM     35  O   UNL     1      31.557  30.242 -46.612  1.00  0.00    -0.504 OA
ATOM     36  H   UNL     1      30.779  30.319 -46.012  1.00  0.00     0.293 HD
ENDBRANCH  32  35
BRANCH  34  37
ATOM     37  O   UNL     1      30.430  29.555 -48.990  1.00  0.00    -0.504 OA
ATOM     38  H   UNL     1      29.712  29.629 -49.650  1.00  0.00     0.293 HD
ENDBRANCH  34  37
ENDBRANCH  28  29
BRANCH  28  39
ATOM     39  O   UNL     1      31.429  35.434 -46.941  1.00  0.00    -0.386 OA
ATOM     40  H   UNL     1      32.001  35.264 -46.162  1.00  0.00     0.211 HD
ENDBRANCH  28  39
ENDBRANCH  27  28
ENDBRANCH  26  27
ENDBRANCH   5  26
BRANCH   4  41
ATOM     41  O   UNL     1      29.371  37.705 -47.294  1.00  0.00    -0.385 OA
ATOM     42  H   UNL     1      30.229  37.483 -46.880  1.00  0.00     0.211 HD
ENDBRANCH   4  41
TORSDOF 16
ENDMDL
MODEL 2
REMARK VINA RESULT:    -6.451      2.738      5.119
REMARK INTER + INTRA:         -12.199
REMARK INTER:                 -11.064
REMARK INTRA:                  -1.135
REMARK UNBOUND:                -1.411
REMARK SMILES C[C@@H]1O[C@@H](OC[C@H]2O[C@@H](OCC(O)c3ccc(O)c(O)c3)[C@H](O)[C@@H](O)[C@@H]2O)[C@H](O)[C@H](O)[C@H]1O
REMARK SMILES IDX 7 1 26 2 24 3 22 4 9 5 8 6 6 7 5 8 4 9 2 10 32 11 3 12 30 13
REMARK SMILES IDX 28 14 1 15 33 16 31 18 29 20 27 22 25 24 10 26 11 27 12 28
REMARK SMILES IDX 14 29 21 30 15 31 19 32 16 33 17 34 20 35 18 37 13 39 23 41
REMARK H PARENT 33 17 31 19 29 21 27 23 25 25 20 36 18 38 13 40 23 42
ROOT
ATOM      1  C   UNL     1      29.696  44.238 -50.724  1.00  0.00     0.178 C 
ATOM      2  C   UNL     1      29.282  45.498 -49.949  1.00  0.00     0.177 C 
ATOM      3  C   UNL     1      27.888  45.307 -49.355  1.00  0.00     0.179 C 
ATOM      4  C   UNL     1      27.834  44.027 -48.529  1.00  0.00     0.202 C 
ATOM      5  C   UNL     1      28.307  42.838 -49.386  1.00  0.00     0.282 C 
ATOM      6  O   UNL     1      29.631  43.076 -49.869  1.00  0.00    -0.341 OA
ENDROOT
BRANCH   1   7
ATOM      7  C   UNL     1      31.128  44.383 -51.262  1.00  0.00     0.198 C 
BRANCH   7   8
ATOM      8  O   UNL     1      31.355  43.382 -52.262  1.00  0.00    -0.347 OA
BRANCH   8   9
ATOM      9  C   UNL     1      30.216  43.160 -53.098  1.00  0.00     0.281 C 
ATOM     10  C   UNL     1      31.049  41.062 -53.907  1.00  0.00     0.150 C 
ATOM     11  C   UNL     1      31.213  41.601 -55.338  1.00  0.00     0.174 C 
ATOM     12  O   UNL     1      29.997  41.745 -53.223  1.00  0.00    -0.344 OA
ATOM     13  C   UNL     1      31.457  43.115 -55.287  1.00  0.00     0.179 C 
ATOM     14  C   UNL     1      30.365  43.822 -54.484  1.00  0.00     0.202 C 
ATOM     15  C   UNL     1      30.703  39.577 -53.898  1.00  0.00     0.041 C 
BRANCH  11  16
ATOM     16  O   UNL     1      32.307  40.964 -56.029  1.00  0.00    -0.388 OA
ATOM     17  H   UNL     1      31.893  40.375 -56.689  1.00  0.00     0.211 HD
ENDBRANCH  11  16
BRANCH  13  18
ATOM     18  O   UNL     1      31.466  43.649 -56.623  1.00  0.00    -0.387 OA
ATOM     19  H   UNL     1      32.270  44.203 -56.681  1.00  0.00     0.211 HD
ENDBRANCH  13  18
BRANCH  14  20
ATOM     20  O   UNL     1      29.133  43.770 -55.224  1.00  0.00    -0.385 OA
ATOM     21  H   UNL     1      29.112  42.866 -55.604  1.00  0.00     0.211 HD
ENDBRANCH  14  20
ENDBRANCH   8   9
ENDBRANCH   7   8
ENDBRANCH   1   7
BRANCH   2  22
ATOM     22  O   UNL     1      29.275  46.649 -50.796  1.00  0.00    -0.387 OA
ATOM     23  H   UNL     1      30.035  47.191 -50.501  1.00  0.00     0.211 HD
ENDBRANCH   2  22
BRANCH   3  24
ATOM     24  O   UNL     1      27.567  46.444 -48.539  1.00  0.00    -0.387 OA
ATOM     25  H   UNL     1      26.589  46.464 -48.503  1.00  0.00     0.211 HD
ENDBRANCH   3  24
BRANCH   5  26
ATOM     26  O   UNL     1      28.289  41.699 -48.519  1.00  0.00    -0.347 OA
BRANCH  26  27
ATOM     27  C   UNL     1      28.771  40.485 -49.109  1.00  0.00     0.200 C 
BRANCH  27  28
ATOM     28  C   UNL     1      30.234  40.109 -48.787  1.00  0.00     0.170 C 
BRANCH  28  29
ATOM     29  C   UNL     1      30.544  38.668 -48.426  1.00  0.00    -0.013 A 
ATOM     30  C   UNL     1      29.861  38.092 -47.337  1.00  0.00     0.056 A 
ATOM     31  C   UNL     1      31.500  37.887 -49.097  1.00  0.00     0.010 A 
ATOM     32  C   UNL     1      30.105  36.774 -46.966  1.00  0.00     0.157 A 
ATOM     33  C   UNL     1      31.758  36.568 -48.706  1.00  0.00     0.050 A 
ATOM     34  C   UNL     1      31.057  36.022 -47.643  1.00  0.00     0.157 A 
BRANCH  32  35
ATOM     35  O   UNL     1      29.409  36.172 -45.955  1.00  0.00    -0.504 OA
ATOM     36  H   UNL     1      28.483  36.044 -46.265  1.00  0.00     0.293 HD
ENDBRANCH  32  35
BRANCH  34  37
ATOM     37  O   UNL     1      31.303  34.732 -47.271  1.00  0.00    -0.504 OA
ATOM     38  H   UNL     1      30.484  34.448 -46.819  1.00  0.00     0.293 HD
ENDBRANCH  34  37
ENDBRANCH  28  29
BRANCH  28  39
ATOM     39  O   UNL     1      30.744  40.982 -47.775  1.00  0.00    -0.386 OA
ATOM     40  H   UNL     1      30.170  41.778 -47.784  1.00  0.00     0.211 HD
ENDBRANCH  28  39
ENDBRANCH  27  28
ENDBRANCH  26  27
ENDBRANCH   5  26
BRANCH   4  41
ATOM     41  O   UNL     1      26.491  43.836 -48.057  1.00  0.00    -0.385 OA
ATOM     42  H   UNL     1      26.568  43.210 -47.311  1.00  0.00     0.211 HD
ENDBRANCH   4  41
TORSDOF 16
ENDMDL
MODEL 3
REMARK VINA RESULT:    -6.446      4.365      5.505
REMARK INTER + INTRA:         -12.190
REMARK INTER:                 -10.781
REMARK INTRA:                  -1.409
REMARK UNBOUND:                -1.411
REMARK SMILES C[C@@H]1O[C@@H](OC[C@H]2O[C@@H](OCC(O)c3ccc(O)c(O)c3)[C@H](O)[C@@H](O)[C@@H]2O)[C@H](O)[C@H](O)[C@H]1O
REMARK SMILES IDX 7 1 26 2 24 3 22 4 9 5 8 6 6 7 5 8 4 9 2 10 32 11 3 12 30 13
REMARK SMILES IDX 28 14 1 15 33 16 31 18 29 20 27 22 25 24 10 26 11 27 12 28
REMARK SMILES IDX 14 29 21 30 15 31 19 32 16 33 17 34 20 35 18 37 13 39 23 41
REMARK H PARENT 33 17 31 19 29 21 27 23 25 25 20 36 18 38 13 40 23 42
ROOT
ATOM      1  C   UNL     1      26.992  36.576 -48.140  1.00  0.00     0.178 C 
ATOM      2  C   UNL     1      26.655  36.273 -46.672  1.00  0.00     0.177 C 
ATOM      3  C   UNL     1      27.679  35.298 -46.095  1.00  0.00     0.179 C 
ATOM      4  C   UNL     1      29.093  35.824 -46.310  1.00  0.00     0.202 C 
ATOM      5  C   UNL     1      29.310  36.133 -47.803  1.00  0.00     0.282 C 
ATOM      6  O   UNL     1      28.340  37.081 -48.254  1.00  0.00    -0.341 OA
ENDROOT
BRANCH   1   7
ATOM      7  C   UNL     1      26.018  37.617 -48.713  1.00  0.00     0.198 C 
BRANCH   7   8
ATOM      8  O   UNL     1      25.348  38.275 -47.630  1.00  0.00    -0.347 OA
BRANCH   8   9
ATOM      9  C   UNL     1      26.023  39.457 -47.191  1.00  0.00     0.281 C 
ATOM     10  C   UNL     1      23.988  40.707 -46.986  1.00  0.00     0.150 C 
ATOM     11  C   UNL     1      24.379  41.662 -48.127  1.00  0.00     0.174 C 
ATOM     12  O   UNL     1      25.148  40.200 -46.326  1.00  0.00    -0.344 OA
ATOM     13  C   UNL     1      25.314  40.933 -49.102  1.00  0.00     0.179 C 
ATOM     14  C   UNL     1      26.511  40.328 -48.367  1.00  0.00     0.202 C 
ATOM     15  C   UNL     1      23.138  41.406 -45.930  1.00  0.00     0.041 C 
BRANCH  11  16
ATOM     16  O   UNL     1      23.224  42.142 -48.844  1.00  0.00    -0.388 OA
ATOM     17  H   UNL     1      23.554  42.853 -49.427  1.00  0.00     0.211 HD
ENDBRANCH  11  16
BRANCH  13  18
ATOM     18  O   UNL     1      25.800  41.860 -50.090  1.00  0.00    -0.387 OA
ATOM     19  H   UNL     1      26.020  41.318 -50.874  1.00  0.00     0.211 HD
ENDBRANCH  13  18
BRANCH  14  20
ATOM     20  O   UNL     1      27.366  41.391 -47.912  1.00  0.00    -0.385 OA
ATOM     21  H   UNL     1      27.106  42.166 -48.453  1.00  0.00     0.211 HD
ENDBRANCH  14  20
ENDBRANCH   8   9
ENDBRANCH   7   8
ENDBRANCH   1   7
BRANCH   2  22
ATOM     22  O   UNL     1      25.349  35.708 -46.546  1.00  0.00    -0.387 OA
ATOM     23  H   UNL     1      25.469  34.902 -46.002  1.00  0.00     0.211 HD
ENDBRANCH   2  22
BRANCH   3  24
ATOM     24  O   UNL     1      27.417  35.119 -44.695  1.00  0.00    -0.387 OA
ATOM     25  H   UNL     1      27.388  36.024 -44.323  1.00  0.00     0.211 HD
ENDBRANCH   3  24
BRANCH   5  26
ATOM     26  O   UNL     1      30.628  36.681 -47.903  1.00  0.00    -0.347 OA
BRANCH  26  27
ATOM     27  C   UNL     1      31.433  36.128 -48.951  1.00  0.00     0.200 C 
BRANCH  27  28
ATOM     28  C   UNL     1      32.335  34.938 -48.556  1.00  0.00     0.170 C 
BRANCH  28  29
ATOM     29  C   UNL     1      31.767  33.535 -48.671  1.00  0.00    -0.013 A 
ATOM     30  C   UNL     1      31.989  32.637 -47.608  1.00  0.00     0.056 A 
ATOM     31  C   UNL     1      31.061  33.071 -49.794  1.00  0.00     0.010 A 
ATOM     32  C   UNL     1      31.488  31.342 -47.661  1.00  0.00     0.157 A 
ATOM     33  C   UNL     1      30.577  31.760 -49.851  1.00  0.00     0.050 A 
ATOM     34  C   UNL     1      30.794  30.905 -48.782  1.00  0.00     0.157 A 
BRANCH  32  35
ATOM     35  O   UNL     1      31.634  30.472 -46.615  1.00  0.00    -0.504 OA
ATOM     36  H   UNL     1      31.235  29.613 -46.884  1.00  0.00     0.293 HD
ENDBRANCH  32  35
BRANCH  34  37
ATOM     37  O   UNL     1      30.312  29.630 -48.837  1.00  0.00    -0.504 OA
ATOM     38  H   UNL     1      30.181  29.459 -49.791  1.00  0.00     0.293 HD
ENDBRANCH  34  37
ENDBRANCH  28  29
BRANCH  28  39
ATOM     39  O   UNL     1      32.854  35.143 -47.239  1.00  0.00    -0.386 OA
ATOM     40  H   UNL     1      33.612  35.760 -47.336  1.00  0.00     0.211 HD
ENDBRANCH  28  39
ENDBRANCH  27  28
ENDBRANCH  26  27
ENDBRANCH   5  26
BRANCH   4  41
ATOM     41  O   UNL     1      30.029  34.845 -45.832  1.00  0.00    -0.385 OA
ATOM     42  H   UNL     1      29.824  34.029 -46.332  1.00  0.00     0.211 HD
ENDBRANCH   4  41
TORSDOF 16
ENDMDL
MODEL 4
REMARK VINA RESULT:    -6.400      3.429      8.907
REMARK INTER + INTRA:         -12.114
REMARK INTER:                  -9.821
REMARK INTRA:                  -2.293
REMARK UNBOUND:                -1.411
REMARK SMILES C[C@@H]1O[C@@H](OC[C@H]2O[C@@H](OCC(O)c3ccc(O)c(O)c3)[C@H](O)[C@@H](O)[C@@H]2O)[C@H](O)[C@H](O)[C@H]1O
REMARK SMILES IDX 7 1 26 2 24 3 22 4 9 5 8 6 6 7 5 8 4 9 2 10 32 11 3 12 30 13
REMARK SMILES IDX 28 14 1 15 33 16 31 18 29 20 27 22 25 24 10 26 11 27 12 28
REMARK SMILES IDX 14 29 21 30 15 31 19 32 16 33 17 34 20 35 18 37 13 39 23 41
REMARK H PARENT 33 17 31 19 29 21 27 23 25 25 20 36 18 38 13 40 23 42
ROOT
ATOM      1  C   UNL     1      30.773  32.477 -49.141  1.00  0.00     0.178 C 
ATOM      2  C   UNL     1      30.821  31.947 -47.701  1.00  0.00     0.177 C 
ATOM      3  C   UNL     1      32.257  31.988 -47.181  1.00  0.00     0.179 C 
ATOM      4  C   UNL     1      32.841  33.386 -47.345  1.00  0.00     0.202 C 
ATOM      5  C   UNL     1      32.704  33.835 -48.812  1.00  0.00     0.282 C 
ATOM      6  O   UNL     1      31.331  33.808 -49.208  1.00  0.00    -0.341 OA
ENDROOT
BRANCH   1   7
ATOM      7  C   UNL     1      29.324  32.517 -49.652  1.00  0.00     0.198 C 
BRANCH   7   8
ATOM      8  O   UNL     1      28.469  32.972 -48.596  1.00  0.00    -0.347 OA
BRANCH   8   9
ATOM      9  C   UNL     1      27.923  34.271 -48.839  1.00  0.00     0.281 C 
ATOM     10  C   UNL     1      28.716  35.145 -46.752  1.00  0.00     0.150 C 
ATOM     11  C   UNL     1      27.289  35.332 -46.210  1.00  0.00     0.174 C 
ATOM     12  O   UNL     1      28.738  35.252 -48.176  1.00  0.00    -0.344 OA
ATOM     13  C   UNL     1      26.355  34.309 -46.871  1.00  0.00     0.179 C 
ATOM     14  C   UNL     1      26.449  34.383 -48.395  1.00  0.00     0.202 C 
ATOM     15  C   UNL     1      29.672  36.200 -46.206  1.00  0.00     0.041 C 
BRANCH  11  16
ATOM     16  O   UNL     1      27.234  35.172 -44.778  1.00  0.00    -0.388 OA
ATOM     17  H   UNL     1      27.073  34.220 -44.627  1.00  0.00     0.211 HD
ENDBRANCH  11  16
BRANCH  13  18
ATOM     18  O   UNL     1      24.995  34.572 -46.480  1.00  0.00    -0.387 OA
ATOM     19  H   UNL     1      25.054  35.145 -45.689  1.00  0.00     0.211 HD
ENDBRANCH  13  18
BRANCH  14  20
ATOM     20  O   UNL     1      25.861  35.618 -48.841  1.00  0.00    -0.385 OA
ATOM     21  H   UNL     1      24.933  35.575 -48.529  1.00  0.00     0.211 HD
ENDBRANCH  14  20
ENDBRANCH   8   9
ENDBRANCH   7   8
ENDBRANCH   1   7
BRANCH   2  22
ATOM     22  O   UNL     1      30.336  30.605 -47.625  1.00  0.00    -0.387 OA
ATOM     23  H   UNL     1      30.441  30.242 -48.529  1.00  0.00     0.211 HD
ENDBRANCH   2  22
BRANCH   3  24
ATOM     24  O   UNL     1      32.265  31.600 -45.798  1.00  0.00    -0.387 OA
ATOM     25  H   UNL     1      32.475  30.644 -45.803  1.00  0.00     0.211 HD
ENDBRANCH   3  24
BRANCH   5  26
ATOM     26  O   UNL     1      33.211  35.172 -48.862  1.00  0.00    -0.347 OA
BRANCH  26  27
ATOM     27  C   UNL     1      32.281  36.186 -48.460  1.00  0.00     0.200 C 
BRANCH  27  28
ATOM     28  C   UNL     1      31.644  37.010 -49.600  1.00  0.00     0.170 C 
BRANCH  28  29
ATOM     29  C   UNL     1      30.999  38.340 -49.253  1.00  0.00    -0.013 A 
ATOM     30  C   UNL     1      29.612  38.480 -49.455  1.00  0.00     0.056 A 
ATOM     31  C   UNL     1      31.715  39.450 -48.772  1.00  0.00     0.010 A 
ATOM     32  C   UNL     1      28.971  39.676 -49.150  1.00  0.00     0.157 A 
ATOM     33  C   UNL     1      31.068  40.657 -48.487  1.00  0.00     0.050 A 
ATOM     34  C   UNL     1      29.699  40.760 -48.678  1.00  0.00     0.157 A 
BRANCH  32  35
ATOM     35  O   UNL     1      27.616  39.816 -49.277  1.00  0.00    -0.504 OA
ATOM     36  H   UNL     1      27.211  38.926 -49.154  1.00  0.00     0.293 HD
ENDBRANCH  32  35
BRANCH  34  37
ATOM     37  O   UNL     1      29.070  41.936 -48.390  1.00  0.00    -0.504 OA
ATOM     38  H   UNL     1      28.231  41.893 -48.891  1.00  0.00     0.293 HD
ENDBRANCH  34  37
ENDBRANCH  28  29
BRANCH  28  39
ATOM     39  O   UNL     1      30.716  36.197 -50.323  1.00  0.00    -0.386 OA
ATOM     40  H   UNL     1      29.871  36.696 -50.343  1.00  0.00     0.211 HD
ENDBRANCH  28  39
ENDBRANCH  27  28
ENDBRANCH  26  27
ENDBRANCH   5  26
BRANCH   4  41
ATOM     41  O   UNL     1      34.215  33.366 -46.926  1.00  0.00    -0.385 OA
ATOM     42  H   UNL     1      34.734  33.505 -47.743  1.00  0.00     0.211 HD
ENDBRANCH   4  41
TORSDOF 16
ENDMDL
MODEL 5
REMARK VINA RESULT:    -6.380      2.821      8.950
REMARK INTER + INTRA:         -12.080
REMARK INTER:                 -10.386
REMARK INTRA:                  -1.694
REMARK UNBOUND:                -1.411
REMARK SMILES C[C@@H]1O[C@@H](OC[C@H]2O[C@@H](OCC(O)c3ccc(O)c(O)c3)[C@H](O)[C@@H](O)[C@@H]2O)[C@H](O)[C@H](O)[C@H]1O
REMARK SMILES IDX 7 1 26 2 24 3 22 4 9 5 8 6 6 7 5 8 4 9 2 10 32 11 3 12 30 13
REMARK SMILES IDX 28 14 1 15 33 16 31 18 29 20 27 22 25 24 10 26 11 27 12 28
REMARK SMILES IDX 14 29 21 30 15 31 19 32 16 33 17 34 20 35 18 37 13 39 23 41
REMARK H PARENT 33 17 31 19 29 21 27 23 25 25 20 36 18 38 13 40 23 42
ROOT
ATOM      1  C   UNL     1      29.551  32.795 -49.080  1.00  0.00     0.178 C 
ATOM      2  C   UNL     1      29.936  31.644 -48.138  1.00  0.00     0.177 C 
ATOM      3  C   UNL     1      31.426  31.716 -47.813  1.00  0.00     0.179 C 
ATOM      4  C   UNL     1      31.788  33.098 -47.282  1.00  0.00     0.202 C 
ATOM      5  C   UNL     1      31.322  34.175 -48.280  1.00  0.00     0.282 C 
ATOM      6  O   UNL     1      29.914  34.066 -48.498  1.00  0.00    -0.341 OA
ENDROOT
BRANCH   1   7
ATOM      7  C   UNL     1      28.039  32.784 -49.354  1.00  0.00     0.198 C 
BRANCH   7   8
ATOM      8  O   UNL     1      27.535  34.120 -49.242  1.00  0.00    -0.347 OA
BRANCH   8   9
ATOM      9  C   UNL     1      26.308  34.196 -48.512  1.00  0.00     0.281 C 
ATOM     10  C   UNL     1      26.280  36.593 -48.541  1.00  0.00     0.150 C 
ATOM     11  C   UNL     1      26.466  36.682 -47.017  1.00  0.00     0.174 C 
ATOM     12  O   UNL     1      25.605  35.387 -48.902  1.00  0.00    -0.344 OA
ATOM     13  C   UNL     1      27.219  35.439 -46.523  1.00  0.00     0.179 C 
ATOM     14  C   UNL     1      26.527  34.157 -46.985  1.00  0.00     0.202 C 
ATOM     15  C   UNL     1      25.448  37.754 -49.077  1.00  0.00     0.041 C 
BRANCH  11  16
ATOM     16  O   UNL     1      27.196  37.865 -46.634  1.00  0.00    -0.388 OA
ATOM     17  H   UNL     1      26.594  38.369 -46.052  1.00  0.00     0.211 HD
ENDBRANCH  11  16
BRANCH  13  18
ATOM     18  O   UNL     1      27.269  35.444 -45.084  1.00  0.00    -0.387 OA
ATOM     19  H   UNL     1      28.142  35.819 -44.852  1.00  0.00     0.211 HD
ENDBRANCH  13  18
BRANCH  14  20
ATOM     20  O   UNL     1      25.281  34.018 -46.280  1.00  0.00    -0.385 OA
ATOM     21  H   UNL     1      25.541  33.842 -45.352  1.00  0.00     0.211 HD
ENDBRANCH  14  20
ENDBRANCH   8   9
ENDBRANCH   7   8
ENDBRANCH   1   7
BRANCH   2  22
ATOM     22  O   UNL     1      29.647  30.374 -48.726  1.00  0.00    -0.387 OA
ATOM     23  H   UNL     1      28.687  30.394 -48.924  1.00  0.00     0.211 HD
ENDBRANCH   2  22
BRANCH   3  24
ATOM     24  O   UNL     1      31.743  30.707 -46.843  1.00  0.00    -0.387 OA
ATOM     25  H   UNL     1      30.884  30.458 -46.444  1.00  0.00     0.211 HD
ENDBRANCH   3  24
BRANCH   5  26
ATOM     26  O   UNL     1      31.638  35.433 -47.676  1.00  0.00    -0.347 OA
BRANCH  26  27
ATOM     27  C   UNL     1      31.710  36.537 -48.585  1.00  0.00     0.200 C 
BRANCH  27  28
ATOM     28  C   UNL     1      30.563  37.567 -48.492  1.00  0.00     0.170 C 
BRANCH  28  29
ATOM     29  C   UNL     1      30.826  38.983 -48.972  1.00  0.00    -0.013 A 
ATOM     30  C   UNL     1      30.409  39.335 -50.270  1.00  0.00     0.056 A 
ATOM     31  C   UNL     1      31.494  39.953 -48.204  1.00  0.00     0.010 A 
ATOM     32  C   UNL     1      30.622  40.620 -50.758  1.00  0.00     0.157 A 
ATOM     33  C   UNL     1      31.725  41.238 -48.708  1.00  0.00     0.050 A 
ATOM     34  C   UNL     1      31.286  41.561 -49.982  1.00  0.00     0.157 A 
BRANCH  32  35
ATOM     35  O   UNL     1      30.169  41.005 -51.990  1.00  0.00    -0.504 OA
ATOM     36  H   UNL     1      30.943  41.029 -52.598  1.00  0.00     0.293 HD
ENDBRANCH  32  35
BRANCH  34  37
ATOM     37  O   UNL     1      31.504  42.818 -50.466  1.00  0.00    -0.504 OA
ATOM     38  H   UNL     1      30.633  43.103 -50.807  1.00  0.00     0.293 HD
ENDBRANCH  34  37
ENDBRANCH  28  29
BRANCH  28  39
ATOM     39  O   UNL     1      30.050  37.598 -47.157  1.00  0.00    -0.386 OA
ATOM     40  H   UNL     1      30.578  36.947 -46.645  1.00  0.00     0.211 HD
ENDBRANCH  28  39
ENDBRANCH  27  28
ENDBRANCH  26  27
ENDBRANCH   5  26
BRANCH   4  41
ATOM     41  O   UNL     1      33.207  33.156 -47.068  1.00  0.00    -0.385 OA
ATOM     42  H   UNL     1      33.319  33.612 -46.211  1.00  0.00     0.211 HD
ENDBRANCH   4  41
TORSDOF 16
ENDMDL
MODEL 6
REMARK VINA RESULT:    -6.374      2.529      3.843
REMARK INTER + INTRA:         -12.070
REMARK INTER:                 -10.411
REMARK INTRA:                  -1.659
REMARK UNBOUND:                -1.411
REMARK SMILES C[C@@H]1O[C@@H](OC[C@H]2O[C@@H](OCC(O)c3ccc(O)c(O)c3)[C@H](O)[C@@H](O)[C@@H]2O)[C@H](O)[C@H](O)[C@H]1O
REMARK SMILES IDX 7 1 26 2 24 3 22 4 9 5 8 6 6 7 5 8 4 9 2 10 32 11 3 12 30 13
REMARK SMILES IDX 28 14 1 15 33 16 31 18 29 20 27 22 25 24 10 26 11 27 12 28
REMARK SMILES IDX 14 29 21 30 15 31 19 32 16 33 17 34 20 35 18 37 13 39 23 41
REMARK H PARENT 33 17 31 19 29 21 27 23 25 25 20 36 18 38 13 40 23 42
ROOT
ATOM      1  C   UNL     1      27.343  36.485 -49.179  1.00  0.00     0.178 C 
ATOM      2  C   UNL     1      26.439  37.367 -48.306  1.00  0.00     0.177 C 
ATOM      3  C   UNL     1      26.129  36.650 -46.992  1.00  0.00     0.179 C 
ATOM      4  C   UNL     1      27.419  36.217 -46.308  1.00  0.00     0.202 C 
ATOM      5  C   UNL     1      28.266  35.377 -47.282  1.00  0.00     0.282 C 
ATOM      6  O   UNL     1      28.546  36.131 -48.464  1.00  0.00    -0.341 OA
ENDROOT
BRANCH   1   7
ATOM      7  C   UNL     1      27.729  37.223 -50.471  1.00  0.00     0.198 C 
BRANCH   7   8
ATOM      8  O   UNL     1      27.802  38.629 -50.201  1.00  0.00    -0.347 OA
BRANCH   8   9
ATOM      9  C   UNL     1      28.793  39.298 -50.984  1.00  0.00     0.281 C 
ATOM     10  C   UNL     1      30.438  39.194 -49.243  1.00  0.00     0.150 C 
ATOM     11  C   UNL     1      30.446  40.721 -49.065  1.00  0.00     0.174 C 
ATOM     12  O   UNL     1      30.095  38.839 -50.584  1.00  0.00    -0.344 OA
ATOM     13  C   UNL     1      29.078  41.288 -49.471  1.00  0.00     0.179 C 
ATOM     14  C   UNL     1      28.690  40.834 -50.878  1.00  0.00     0.202 C 
ATOM     15  C   UNL     1      31.804  38.583 -48.951  1.00  0.00     0.041 C 
BRANCH  11  16
ATOM     16  O   UNL     1      30.734  41.101 -47.704  1.00  0.00    -0.388 OA
ATOM     17  H   UNL     1      31.688  40.929 -47.580  1.00  0.00     0.211 HD
ENDBRANCH  11  16
BRANCH  13  18
ATOM     18  O   UNL     1      29.124  42.726 -49.447  1.00  0.00    -0.387 OA
ATOM     19  H   UNL     1      30.008  42.968 -49.789  1.00  0.00     0.211 HD
ENDBRANCH  13  18
BRANCH  14  20
ATOM     20  O   UNL     1      29.548  41.484 -51.832  1.00  0.00    -0.385 OA
ATOM     21  H   UNL     1      29.117  42.347 -52.003  1.00  0.00     0.211 HD
ENDBRANCH  14  20
ENDBRANCH   8   9
ENDBRANCH   7   8
ENDBRANCH   1   7
BRANCH   2  22
ATOM     22  O   UNL     1      25.212  37.672 -48.971  1.00  0.00    -0.387 OA
ATOM     23  H   UNL     1      25.362  37.435 -49.910  1.00  0.00     0.211 HD
ENDBRANCH   2  22
BRANCH   3  24
ATOM     24  O   UNL     1      25.382  37.534 -46.142  1.00  0.00    -0.387 OA
ATOM     25  H   UNL     1      26.042  37.915 -45.528  1.00  0.00     0.211 HD
ENDBRANCH   3  24
BRANCH   5  26
ATOM     26  O   UNL     1      29.478  35.072 -46.586  1.00  0.00    -0.347 OA
BRANCH  26  27
ATOM     27  C   UNL     1      30.636  35.773 -47.055  1.00  0.00     0.200 C 
BRANCH  27  28
ATOM     28  C   UNL     1      31.622  34.952 -47.916  1.00  0.00     0.170 C 
BRANCH  28  29
ATOM     29  C   UNL     1      31.296  33.496 -48.193  1.00  0.00    -0.013 A 
ATOM     30  C   UNL     1      31.714  32.529 -47.258  1.00  0.00     0.056 A 
ATOM     31  C   UNL     1      30.629  33.055 -49.349  1.00  0.00     0.010 A 
ATOM     32  C   UNL     1      31.438  31.182 -47.462  1.00  0.00     0.157 A 
ATOM     33  C   UNL     1      30.373  31.696 -49.560  1.00  0.00     0.050 A 
ATOM     34  C   UNL     1      30.779  30.770 -48.613  1.00  0.00     0.157 A 
BRANCH  32  35
ATOM     35  O   UNL     1      31.776  30.232 -46.538  1.00  0.00    -0.504 OA
ATOM     36  H   UNL     1      32.673  30.454 -46.196  1.00  0.00     0.293 HD
ENDBRANCH  32  35
BRANCH  34  37
ATOM     37  O   UNL     1      30.519  29.446 -48.817  1.00  0.00    -0.504 OA
ATOM     38  H   UNL     1      29.861  29.218 -48.131  1.00  0.00     0.293 HD
ENDBRANCH  34  37
ENDBRANCH  28  29
BRANCH  28  39
ATOM     39  O   UNL     1      32.940  35.057 -47.370  1.00  0.00    -0.386 OA
ATOM     40  H   UNL     1      32.894  35.742 -46.668  1.00  0.00     0.211 HD
ENDBRANCH  28  39
ENDBRANCH  27  28
ENDBRANCH  26  27
ENDBRANCH   5  26
BRANCH   4  41
ATOM     41  O   UNL     1      27.088  35.475 -45.123  1.00  0.00    -0.385 OA
ATOM     42  H   UNL     1      27.265  36.086 -44.380  1.00  0.00     0.211 HD
ENDBRANCH   4  41
TORSDOF 16
ENDMDL
MODEL 7
REMARK VINA RESULT:    -6.361      2.335      4.024
REMARK INTER + INTRA:         -12.048
REMARK INTER:                 -10.454
REMARK INTRA:                  -1.594
REMARK UNBOUND:                -1.411
REMARK SMILES C[C@@H]1O[C@@H](OC[C@H]2O[C@@H](OCC(O)c3ccc(O)c(O)c3)[C@H](O)[C@@H](O)[C@@H]2O)[C@H](O)[C@H](O)[C@H]1O
REMARK SMILES IDX 7 1 26 2 24 3 22 4 9 5 8 6 6 7 5 8 4 9 2 10 32 11 3 12 30 13
REMARK SMILES IDX 28 14 1 15 33 16 31 18 29 20 27 22 25 24 10 26 11 27 12 28
REMARK SMILES IDX 14 29 21 30 15 31 19 32 16 33 17 34 20 35 18 37 13 39 23 41
REMARK H PARENT 33 17 31 19 29 21 27 23 25 25 20 36 18 38 13 40 23 42
ROOT
ATOM      1  C   UNL     1      27.318  36.721 -48.587  1.00  0.00     0.178 C 
ATOM      2  C   UNL     1      26.863  36.513 -47.135  1.00  0.00     0.177 C 
ATOM      3  C   UNL     1      27.804  35.536 -46.432  1.00  0.00     0.179 C 
ATOM      4  C   UNL     1      29.249  36.002 -46.567  1.00  0.00     0.202 C 
ATOM      5  C   UNL     1      29.586  36.220 -48.054  1.00  0.00     0.282 C 
ATOM      6  O   UNL     1      28.689  37.174 -48.626  1.00  0.00    -0.341 OA
ENDROOT
BRANCH   1   7
ATOM      7  C   UNL     1      26.428  37.762 -49.286  1.00  0.00     0.198 C 
BRANCH   7   8
ATOM      8  O   UNL     1      27.259  38.660 -50.032  1.00  0.00    -0.347 OA
BRANCH   8   9
ATOM      9  C   UNL     1      27.060  40.031 -49.679  1.00  0.00     0.281 C 
ATOM     10  C   UNL     1      28.543  40.828 -51.385  1.00  0.00     0.150 C 
ATOM     11  C   UNL     1      29.554  41.359 -50.355  1.00  0.00     0.174 C 
ATOM     12  O   UNL     1      27.218  40.844 -50.853  1.00  0.00    -0.344 OA
ATOM     13  C   UNL     1      29.450  40.531 -49.067  1.00  0.00     0.179 C 
ATOM     14  C   UNL     1      28.010  40.492 -48.553  1.00  0.00     0.202 C 
ATOM     15  C   UNL     1      28.530  41.676 -52.653  1.00  0.00     0.041 C 
BRANCH  11  16
ATOM     16  O   UNL     1      30.907  41.299 -50.851  1.00  0.00    -0.388 OA
ATOM     17  H   UNL     1      30.887  41.742 -51.721  1.00  0.00     0.211 HD
ENDBRANCH  11  16
BRANCH  13  18
ATOM     18  O   UNL     1      30.286  41.111 -48.050  1.00  0.00    -0.387 OA
ATOM     19  H   UNL     1      30.586  41.968 -48.413  1.00  0.00     0.211 HD
ENDBRANCH  13  18
BRANCH  14  20
ATOM     20  O   UNL     1      27.651  41.798 -48.068  1.00  0.00    -0.385 OA
ATOM     21  H   UNL     1      28.493  42.180 -47.744  1.00  0.00     0.211 HD
ENDBRANCH  14  20
ENDBRANCH   8   9
ENDBRANCH   7   8
ENDBRANCH   1   7
BRANCH   2  22
ATOM     22  O   UNL     1      25.531  36.000 -47.078  1.00  0.00    -0.387 OA
ATOM     23  H   UNL     1      25.211  36.214 -46.177  1.00  0.00     0.211 HD
ENDBRANCH   2  22
BRANCH   3  24
ATOM     24  O   UNL     1      27.434  35.444 -45.048  1.00  0.00    -0.387 OA
ATOM     25  H   UNL     1      28.233  35.107 -44.592  1.00  0.00     0.211 HD
ENDBRANCH   3  24
BRANCH   5  26
ATOM     26  O   UNL     1      30.928  36.716 -48.083  1.00  0.00    -0.347 OA
BRANCH  26  27
ATOM     27  C   UNL     1      31.778  36.100 -49.058  1.00  0.00     0.200 C 
BRANCH  27  28
ATOM     28  C   UNL     1      32.572  34.865 -48.580  1.00  0.00     0.170 C 
BRANCH  28  29
ATOM     29  C   UNL     1      31.905  33.504 -48.662  1.00  0.00    -0.013 A 
ATOM     30  C   UNL     1      32.091  32.604 -47.594  1.00  0.00     0.056 A 
ATOM     31  C   UNL     1      31.139  33.079 -49.761  1.00  0.00     0.010 A 
ATOM     32  C   UNL     1      31.499  31.347 -47.618  1.00  0.00     0.157 A 
ATOM     33  C   UNL     1      30.564  31.803 -49.789  1.00  0.00     0.050 A 
ATOM     34  C   UNL     1      30.748  30.948 -48.716  1.00  0.00     0.157 A 
BRANCH  32  35
ATOM     35  O   UNL     1      31.611  30.480 -46.565  1.00  0.00    -0.504 OA
ATOM     36  H   UNL     1      32.420  29.938 -46.710  1.00  0.00     0.293 HD
ENDBRANCH  32  35
BRANCH  34  37
ATOM     37  O   UNL     1      30.177  29.709 -48.742  1.00  0.00    -0.504 OA
ATOM     38  H   UNL     1      29.316  29.846 -49.186  1.00  0.00     0.293 HD
ENDBRANCH  34  37
ENDBRANCH  28  29
BRANCH  28  39
ATOM     39  O   UNL     1      33.055  35.086 -47.252  1.00  0.00    -0.386 OA
ATOM     40  H   UNL     1      33.296  34.204 -46.896  1.00  0.00     0.211 HD
ENDBRANCH  28  39
ENDBRANCH  27  28
ENDBRANCH  26  27
ENDBRANCH   5  26
BRANCH   4  41
ATOM     41  O   UNL     1      30.110  35.019 -45.969  1.00  0.00    -0.385 OA
ATOM     42  H   UNL     1      30.904  35.514 -45.684  1.00  0.00     0.211 HD
ENDBRANCH   4  41
TORSDOF 16
ENDMDL
MODEL 8
REMARK VINA RESULT:    -6.351      2.398      3.974
REMARK INTER + INTRA:         -12.032
REMARK INTER:                 -11.258
REMARK INTRA:                  -0.774
REMARK UNBOUND:                -1.411
REMARK SMILES C[C@@H]1O[C@@H](OC[C@H]2O[C@@H](OCC(O)c3ccc(O)c(O)c3)[C@H](O)[C@@H](O)[C@@H]2O)[C@H](O)[C@H](O)[C@H]1O
REMARK SMILES IDX 7 1 26 2 24 3 22 4 9 5 8 6 6 7 5 8 4 9 2 10 32 11 3 12 30 13
REMARK SMILES IDX 28 14 1 15 33 16 31 18 29 20 27 22 25 24 10 26 11 27 12 28
REMARK SMILES IDX 14 29 21 30 15 31 19 32 16 33 17 34 20 35 18 37 13 39 23 41
REMARK H PARENT 33 17 31 19 29 21 27 23 25 25 20 36 18 38 13 40 23 42
ROOT
ATOM      1  C   UNL     1      28.238  42.698 -51.646  1.00  0.00     0.178 C 
ATOM      2  C   UNL     1      28.287  43.767 -50.545  1.00  0.00     0.177 C 
ATOM      3  C   UNL     1      27.597  43.247 -49.286  1.00  0.00     0.179 C 
ATOM      4  C   UNL     1      28.189  41.905 -48.872  1.00  0.00     0.202 C 
ATOM      5  C   UNL     1      28.127  40.924 -50.058  1.00  0.00     0.282 C 
ATOM      6  O   UNL     1      28.829  41.465 -51.180  1.00  0.00    -0.341 OA
ENDROOT
BRANCH   1   7
ATOM      7  C   UNL     1      28.997  43.175 -52.895  1.00  0.00     0.198 C 
BRANCH   7   8
ATOM      8  O   UNL     1      29.597  44.446 -52.618  1.00  0.00    -0.347 OA
BRANCH   8   9
ATOM      9  C   UNL     1      31.015  44.448 -52.803  1.00  0.00     0.281 C 
ATOM     10  C   UNL     1      30.914  46.008 -54.620  1.00  0.00     0.150 C 
ATOM     11  C   UNL     1      31.412  44.964 -55.634  1.00  0.00     0.174 C 
ATOM     12  O   UNL     1      31.418  45.729 -53.313  1.00  0.00    -0.344 OA
ATOM     13  C   UNL     1      31.011  43.561 -55.158  1.00  0.00     0.179 C 
ATOM     14  C   UNL     1      31.490  43.308 -53.728  1.00  0.00     0.202 C 
ATOM     15  C   UNL     1      31.370  47.416 -54.988  1.00  0.00     0.041 C 
BRANCH  11  16
ATOM     16  O   UNL     1      30.869  45.194 -56.950  1.00  0.00    -0.388 OA
ATOM     17  H   UNL     1      31.530  44.833 -57.573  1.00  0.00     0.211 HD
ENDBRANCH  11  16
BRANCH  13  18
ATOM     18  O   UNL     1      31.597  42.571 -56.022  1.00  0.00    -0.387 OA
ATOM     19  H   UNL     1      31.909  43.060 -56.810  1.00  0.00     0.211 HD
ENDBRANCH  13  18
BRANCH  14  20
ATOM     20  O   UNL     1      32.924  43.197 -53.728  1.00  0.00    -0.385 OA
ATOM     21  H   UNL     1      33.139  42.788 -54.592  1.00  0.00     0.211 HD
ENDBRANCH  14  20
ENDBRANCH   8   9
ENDBRANCH   7   8
ENDBRANCH   1   7
BRANCH   2  22
ATOM     22  O   UNL     1      27.646  44.973 -50.965  1.00  0.00    -0.387 OA
ATOM     23  H   UNL     1      27.124  45.270 -50.191  1.00  0.00     0.211 HD
ENDBRANCH   2  22
BRANCH   3  24
ATOM     24  O   UNL     1      27.755  44.211 -48.234  1.00  0.00    -0.387 OA
ATOM     25  H   UNL     1      28.449  44.825 -48.553  1.00  0.00     0.211 HD
ENDBRANCH   3  24
BRANCH   5  26
ATOM     26  O   UNL     1      28.760  39.723 -49.606  1.00  0.00    -0.347 OA
BRANCH  26  27
ATOM     27  C   UNL     1      30.117  39.558 -50.034  1.00  0.00     0.200 C 
BRANCH  27  28
ATOM     28  C   UNL     1      31.133  39.181 -48.933  1.00  0.00     0.170 C 
BRANCH  28  29
ATOM     29  C   UNL     1      31.126  37.758 -48.404  1.00  0.00    -0.013 A 
ATOM     30  C   UNL     1      30.283  37.455 -47.317  1.00  0.00     0.056 A 
ATOM     31  C   UNL     1      31.940  36.734 -48.917  1.00  0.00     0.010 A 
ATOM     32  C   UNL     1      30.236  36.167 -46.796  1.00  0.00     0.157 A 
ATOM     33  C   UNL     1      31.905  35.444 -48.376  1.00  0.00     0.050 A 
ATOM     34  C   UNL     1      31.051  35.171 -47.319  1.00  0.00     0.157 A 
BRANCH  32  35
ATOM     35  O   UNL     1      29.379  35.832 -45.784  1.00  0.00    -0.504 OA
ATOM     36  H   UNL     1      28.710  35.210 -46.153  1.00  0.00     0.293 HD
ENDBRANCH  32  35
BRANCH  34  37
ATOM     37  O   UNL     1      31.012  33.910 -46.799  1.00  0.00    -0.504 OA
ATOM     38  H   UNL     1      30.103  33.598 -46.983  1.00  0.00     0.293 HD
ENDBRANCH  34  37
ENDBRANCH  28  29
BRANCH  28  39
ATOM     39  O   UNL     1      31.027  40.102 -47.844  1.00  0.00    -0.386 OA
ATOM     40  H   UNL     1      30.337  39.741 -47.245  1.00  0.00     0.211 HD
ENDBRANCH  28  39
ENDBRANCH  27  28
ENDBRANCH  26  27
ENDBRANCH   5  26
BRANCH   4  41
ATOM     41  O   UNL     1      27.461  41.408 -47.738  1.00  0.00    -0.385 OA
ATOM     42  H   UNL     1      28.076  40.795 -47.288  1.00  0.00     0.211 HD
ENDBRANCH   4  41
TORSDOF 16
ENDMDL
MODEL 9
REMARK VINA RESULT:    -6.246      2.918      9.121
REMARK INTER + INTRA:         -11.856
REMARK INTER:                  -9.994
REMARK INTRA:                  -1.862
REMARK UNBOUND:                -1.411
REMARK SMILES C[C@@H]1O[C@@H](OC[C@H]2O[C@@H](OCC(O)c3ccc(O)c(O)c3)[C@H](O)[C@@H](O)[C@@H]2O)[C@H](O)[C@H](O)[C@H]1O
REMARK SMILES IDX 7 1 26 2 24 3 22 4 9 5 8 6 6 7 5 8 4 9 2 10 32 11 3 12 30 13
REMARK SMILES IDX 28 14 1 15 33 16 31 18 29 20 27 22 25 24 10 26 11 27 12 28
REMARK SMILES IDX 14 29 21 30 15 31 19 32 16 33 17 34 20 35 18 37 13 39 23 41
REMARK H PARENT 33 17 31 19 29 21 27 23 25 25 20 36 18 38 13 40 23 42
ROOT
ATOM      1  C   UNL     1      29.665  40.948 -52.984  1.00  0.00     0.178 C 
ATOM      2  C   UNL     1      30.823  40.352 -53.798  1.00  0.00     0.177 C 
ATOM      3  C   UNL     1      31.402  41.416 -54.730  1.00  0.00     0.179 C 
ATOM      4  C   UNL     1      31.778  42.664 -53.941  1.00  0.00     0.202 C 
ATOM      5  C   UNL     1      30.561  43.151 -53.132  1.00  0.00     0.282 C 
ATOM      6  O   UNL     1      30.106  42.116 -52.258  1.00  0.00    -0.341 OA
ENDROOT
BRANCH   1   7
ATOM      7  C   UNL     1      29.122  39.914 -51.985  1.00  0.00     0.198 C 
BRANCH   7   8
ATOM      8  O   UNL     1      30.217  39.155 -51.458  1.00  0.00    -0.347 OA
BRANCH   8   9
ATOM      9  C   UNL     1      30.673  39.637 -50.191  1.00  0.00     0.281 C 
ATOM     10  C   UNL     1      30.813  37.437 -49.250  1.00  0.00     0.150 C 
ATOM     11  C   UNL     1      29.682  37.719 -48.247  1.00  0.00     0.174 C 
ATOM     12  O   UNL     1      31.509  38.638 -49.584  1.00  0.00    -0.344 OA
ATOM     13  C   UNL     1      28.737  38.779 -48.830  1.00  0.00     0.179 C 
ATOM     14  C   UNL     1      29.509  40.028 -49.256  1.00  0.00     0.202 C 
ATOM     15  C   UNL     1      31.841  36.463 -48.684  1.00  0.00     0.041 C 
BRANCH  11  16
ATOM     16  O   UNL     1      28.929  36.528 -47.938  1.00  0.00    -0.388 OA
ATOM     17  H   UNL     1      28.062  36.647 -48.372  1.00  0.00     0.211 HD
ENDBRANCH  11  16
BRANCH  13  18
ATOM     18  O   UNL     1      27.762  39.155 -47.841  1.00  0.00    -0.387 OA
ATOM     19  H   UNL     1      28.189  38.994 -46.975  1.00  0.00     0.211 HD
ENDBRANCH  13  18
BRANCH  14  20
ATOM     20  O   UNL     1      29.987  40.706 -48.081  1.00  0.00    -0.385 OA
ATOM     21  H   UNL     1      30.943  40.845 -48.248  1.00  0.00     0.211 HD
ENDBRANCH  14  20
ENDBRANCH   8   9
ENDBRANCH   7   8
ENDBRANCH   1   7
BRANCH   2  22
ATOM     22  O   UNL     1      30.389  39.236 -54.577  1.00  0.00    -0.387 OA
ATOM     23  H   UNL     1      29.502  39.483 -54.910  1.00  0.00     0.211 HD
ENDBRANCH   2  22
BRANCH   3  24
ATOM     24  O   UNL     1      32.554  40.877 -55.395  1.00  0.00    -0.387 OA
ATOM     25  H   UNL     1      32.812  41.557 -56.051  1.00  0.00     0.211 HD
ENDBRANCH   3  24
BRANCH   5  26
ATOM     26  O   UNL     1      31.018  44.277 -52.376  1.00  0.00    -0.347 OA
BRANCH  26  27
ATOM     27  C   UNL     1      29.981  45.125 -51.870  1.00  0.00     0.200 C 
BRANCH  27  28
ATOM     28  C   UNL     1      29.878  45.227 -50.333  1.00  0.00     0.170 C 
BRANCH  28  29
ATOM     29  C   UNL     1      28.562  44.855 -49.673  1.00  0.00    -0.013 A 
ATOM     30  C   UNL     1      28.413  43.546 -49.173  1.00  0.00     0.056 A 
ATOM     31  C   UNL     1      27.471  45.735 -49.563  1.00  0.00     0.010 A 
ATOM     32  C   UNL     1      27.230  43.155 -48.557  1.00  0.00     0.157 A 
ATOM     33  C   UNL     1      26.275  45.329 -48.961  1.00  0.00     0.050 A 
ATOM     34  C   UNL     1      26.165  44.042 -48.462  1.00  0.00     0.157 A 
BRANCH  32  35
ATOM     35  O   UNL     1      27.084  41.912 -48.006  1.00  0.00    -0.504 OA
ATOM     36  H   UNL     1      26.201  41.880 -47.571  1.00  0.00     0.293 HD
ENDBRANCH  32  35
BRANCH  34  37
ATOM     37  O   UNL     1      25.000  43.653 -47.866  1.00  0.00    -0.504 OA
ATOM     38  H   UNL     1      25.126  42.701 -47.682  1.00  0.00     0.293 HD
ENDBRANCH  34  37
ENDBRANCH  28  29
BRANCH  28  39
ATOM     39  O   UNL     1      30.279  46.532 -49.908  1.00  0.00    -0.386 OA
ATOM     40  H   UNL     1      29.523  46.901 -49.402  1.00  0.00     0.211 HD
ENDBRANCH  28  39
ENDBRANCH  27  28
ENDBRANCH  26  27
ENDBRANCH   5  26
BRANCH   4  41
ATOM     41  O   UNL     1      32.238  43.670 -54.858  1.00  0.00    -0.385 OA
ATOM     42  H   UNL     1      32.622  43.175 -55.609  1.00  0.00     0.211 HD
ENDBRANCH   4  41
TORSDOF 16
ENDMDL
