MODEL 1
REMARK VINA RESULT:    -6.487      0.000      0.000
REMARK INTER + INTRA:         -12.238
REMARK INTER:                 -10.848
REMARK INTRA:                  -1.390
REMARK UNBOUND:                -1.390
REMARK SMILES C[C@@H]1O[C@@H](OC[C@H]2O[C@@H](OCC(O)c3ccc(O)c(O)c3)[C@H](O)[C@@H](O)[C@@H]2O)[C@H](O)[C@H](O)[C@H]1O
REMARK SMILES IDX 7 1 26 2 24 3 22 4 9 5 8 6 6 7 5 8 4 9 2 10 32 11 3 12 30 13
REMARK SMILES IDX 28 14 1 15 33 16 31 18 29 20 27 22 25 24 10 26 11 27 12 28
REMARK SMILES IDX 14 29 21 30 15 31 19 32 16 33 17 34 20 35 18 37 13 39 23 41
REMARK H PARENT 33 17 31 19 29 21 27 23 25 25 20 36 18 38 13 40 23 42
ROOT
ATOM      1  C   UNL     1      27.093  36.600 -48.168  1.00  0.00     0.178 C 
ATOM      2  C   UNL     1      26.739  36.303 -46.704  1.00  0.00     0.177 C 
ATOM      3  C   UNL     1      27.744  35.312 -46.118  1.00  0.00     0.179 C 
ATOM      4  C   UNL     1      29.167  35.817 -46.321  1.00  0.00     0.202 C 
ATOM      5  C   UNL     1      29.401  36.123 -47.812  1.00  0.00     0.282 C 
ATOM      6  O   UNL     1      28.449  37.085 -48.271  1.00  0.00    -0.341 OA
ENDROOT
BRANCH   1   7
ATOM      7  C   UNL     1      26.139  37.655 -48.749  1.00  0.00     0.198 C 
BRANCH   7   8
ATOM      8  O   UNL     1      25.438  38.293 -47.674  1.00  0.00    -0.347 OA
BRANCH   8   9
ATOM      9  C   UNL     1      26.075  39.491 -47.223  1.00  0.00     0.281 C 
ATOM     10  C   UNL     1      24.002  40.675 -47.008  1.00  0.00     0.150 C 
ATOM     11  C   UNL     1      24.363  41.652 -48.139  1.00  0.00     0.174 C 
ATOM     12  O   UNL     1      25.178  40.198 -46.352  1.00  0.00    -0.344 OA
ATOM     13  C   UNL     1      25.321  40.963 -49.120  1.00  0.00     0.179 C 
ATOM     14  C   UNL     1      26.536  40.388 -48.391  1.00  0.00     0.202 C 
ATOM     15  C   UNL     1      23.131  41.337 -45.945  1.00  0.00     0.041 C 
BRANCH  11  16
ATOM     16  O   UNL     1      23.194  42.103 -48.852  1.00  0.00    -0.388 OA
ATOM     17  H   UNL     1      22.510  41.426 -48.688  1.00  0.00     0.211 HD
ENDBRANCH  11  16
BRANCH  13  18
ATOM     18  O   UNL     1      25.779  41.914 -50.099  1.00  0.00    -0.387 OA
ATOM     19  H   UNL     1      26.741  41.760 -50.187  1.00  0.00     0.211 HD
ENDBRANCH  13  18
BRANCH  14  20
ATOM     20  O   UNL     1      27.358  41.473 -47.925  1.00  0.00    -0.385 OA
ATOM     21  H   UNL     1      28.130  41.036 -47.508  1.00  0.00     0.211 HD
ENDBRANCH  14  20
ENDBRANCH   8   9
ENDBRANCH   7   8
ENDBRANCH   1   7
BRANCH   2  22
ATOM     22  O   UNL     1      25.424  35.757 -46.588  1.00  0.00    -0.387 OA
ATOM     23  H   UNL     1      25.285  35.242 -47.410  1.00  0.00     0.211 HD
ENDBRANCH   2  22
BRANCH   3  24
ATOM     24  O   UNL     1      27.467  35.137 -44.720  1.00  0.00    -0.387 OA
ATOM     25  H   UNL     1      26.506  34.956 -44.671  1.00  0.00     0.211 HD
ENDBRANCH   3  24
BRANCH   5  26
ATOM     26  O   UNL     1      30.728  36.651 -47.901  1.00  0.00    -0.347 OA
BRANCH  26  27
ATOM     27  C   UNL     1      31.531  36.090 -48.946  1.00  0.00     0.200 C 
BRANCH  27  28
ATOM     28  C   UNL     1      32.410  34.883 -48.552  1.00  0.00     0.170 C 
BRANCH  28  29
ATOM     29  C   UNL     1      31.804  33.494 -48.632  1.00  0.00    -0.013 A 
ATOM     30  C   UNL     1      32.035  32.603 -47.566  1.00  0.00     0.056 A 
ATOM     31  C   UNL     1      31.053  33.036 -49.728  1.00  0.00     0.010 A 
ATOM     32  C   UNL     1      31.499  31.320 -47.588  1.00  0.00     0.157 A 
ATOM     33  C   UNL     1      30.535  31.736 -49.755  1.00  0.00     0.050 A 
ATOM     34  C   UNL     1      30.762  30.889 -48.683  1.00  0.00     0.157 A 
BRANCH  32  35
ATOM     35  O   UNL     1      31.655  30.459 -46.536  1.00  0.00    -0.504 OA
ATOM     36  H   UNL     1      31.131  30.814 -45.781  1.00  0.00     0.293 HD
ENDBRANCH  32  35
BRANCH  34  37
ATOM     37  O   UNL     1      30.246  29.625 -48.708  1.00  0.00    -0.504 OA
ATOM     38  H   UNL     1      30.997  29.050 -48.459  1.00  0.00     0.293 HD
ENDBRANCH  34  37
ENDBRANCH  28  29
BRANCH  28  39
ATOM     39  O   UNL     1      32.963  35.095 -47.250  1.00  0.00    -0.386 OA
ATOM     40  H   UNL     1      32.525  35.897 -46.893  1.00  0.00     0.211 HD
ENDBRANCH  28  39
ENDBRANCH  27  28
ENDBRANCH  26  27
ENDBRANCH   5  26
BRANCH   4  41
ATOM     41  O   UNL     1      30.085  34.824 -45.836  1.00  0.00    -0.385 OA
ATOM     42  H   UNL     1      30.903  34.955 -46.355  1.00  0.00     0.211 HD
ENDBRANCH   4  41
TORSDOF 16
ENDMDL
MODEL 2
REMARK VINA RESULT:    -6.466      4.336      5.446
REMARK INTER + INTRA:         -12.203
REMARK INTER:                 -10.769
REMARK INTRA:                  -1.434
REMARK UNBOUND:                -1.390
REMARK SMILES C[C@@H]1O[C@@H](OC[C@H]2O[C@@H](OCC(O)c3ccc(O)c(O)c3)[C@H](O)[C@@H](O)[C@@H]2O)[C@H](O)[C@H](O)[C@H]1O
REMARK SMILES IDX 7 1 26 2 24 3 22 4 9 5 8 6 6 7 5 8 4 9 2 10 32 11 3 12 30 13
REMARK SMILES IDX 28 14 1 15 33 16 31 18 29 20 27 22 25 24 10 26 11 27 12 28
REMARK SMILES IDX 14 29 21 30 15 31 19 32 16 33 17 34 20 35 18 37 13 39 23 41
REMARK H PARENT 33 17 31 19 29 21 27 23 25 25 20 36 18 38 13 40 23 42
ROOT
ATOM      1  C   UNL     1      29.571  38.932 -51.260  1.00  0.00     0.178 C 
ATOM      2  C   UNL     1      28.732  39.774 -50.286  1.00  0.00     0.177 C 
ATOM      3  C   UNL     1      28.443  38.968 -49.021  1.00  0.00     0.179 C 
ATOM      4  C   UNL     1      29.740  38.438 -48.422  1.00  0.00     0.202 C 
ATOM      5  C   UNL     1      30.520  37.649 -49.490  1.00  0.00     0.282 C 
ATOM      6  O   UNL     1      30.785  38.482 -50.620  1.00  0.00    -0.341 OA
ENDROOT
BRANCH   1   7
ATOM      7  C   UNL     1      29.937  39.756 -52.505  1.00  0.00     0.198 C 
BRANCH   7   8
ATOM      8  O   UNL     1      29.986  41.143 -52.149  1.00  0.00    -0.347 OA
BRANCH   8   9
ATOM      9  C   UNL     1      31.320  41.646 -52.042  1.00  0.00     0.281 C 
ATOM     10  C   UNL     1      30.586  43.891 -51.630  1.00  0.00     0.150 C 
ATOM     11  C   UNL     1      31.169  44.399 -52.960  1.00  0.00     0.174 C 
ATOM     12  O   UNL     1      31.325  42.769 -51.145  1.00  0.00    -0.344 OA
ATOM     13  C   UNL     1      31.191  43.249 -53.977  1.00  0.00     0.179 C 
ATOM     14  C   UNL     1      31.917  42.028 -53.413  1.00  0.00     0.202 C 
ATOM     15  C   UNL     1      30.632  44.964 -50.547  1.00  0.00     0.041 C 
BRANCH  11  16
ATOM     16  O   UNL     1      30.404  45.496 -53.497  1.00  0.00    -0.388 OA
ATOM     17  H   UNL     1      30.235  45.266 -54.431  1.00  0.00     0.211 HD
ENDBRANCH  11  16
BRANCH  13  18
ATOM     18  O   UNL     1      31.868  43.675 -55.174  1.00  0.00    -0.387 OA
ATOM     19  H   UNL     1      31.705  44.638 -55.240  1.00  0.00     0.211 HD
ENDBRANCH  13  18
BRANCH  14  20
ATOM     20  O   UNL     1      33.321  42.326 -53.307  1.00  0.00    -0.385 OA
ATOM     21  H   UNL     1      33.429  43.174 -53.787  1.00  0.00     0.211 HD
ENDBRANCH  14  20
ENDBRANCH   8   9
ENDBRANCH   7   8
ENDBRANCH   1   7
BRANCH   2  22
ATOM     22  O   UNL     1      27.494  40.172 -50.879  1.00  0.00    -0.387 OA
ATOM     23  H   UNL     1      27.003  40.629 -50.166  1.00  0.00     0.211 HD
ENDBRANCH   2  22
BRANCH   3  24
ATOM     24  O   UNL     1      27.760  39.808 -48.078  1.00  0.00    -0.387 OA
ATOM     25  H   UNL     1      28.246  40.658 -48.095  1.00  0.00     0.211 HD
ENDBRANCH   3  24
BRANCH   5  26
ATOM     26  O   UNL     1      31.744  37.249 -48.866  1.00  0.00    -0.347 OA
BRANCH  26  27
ATOM     27  C   UNL     1      32.194  35.933 -49.210  1.00  0.00     0.200 C 
BRANCH  27  28
ATOM     28  C   UNL     1      32.185  34.894 -48.067  1.00  0.00     0.170 C 
BRANCH  28  29
ATOM     29  C   UNL     1      31.711  33.486 -48.378  1.00  0.00    -0.013 A 
ATOM     30  C   UNL     1      31.847  32.501 -47.379  1.00  0.00     0.056 A 
ATOM     31  C   UNL     1      31.176  33.102 -49.619  1.00  0.00     0.010 A 
ATOM     32  C   UNL     1      31.425  31.197 -47.611  1.00  0.00     0.157 A 
ATOM     33  C   UNL     1      30.774  31.782 -49.855  1.00  0.00     0.050 A 
ATOM     34  C   UNL     1      30.901  30.840 -48.847  1.00  0.00     0.157 A 
BRANCH  32  35
ATOM     35  O   UNL     1      31.486  30.239 -46.636  1.00  0.00    -0.504 OA
ATOM     36  H   UNL     1      30.627  30.251 -46.153  1.00  0.00     0.293 HD
ENDBRANCH  32  35
BRANCH  34  37
ATOM     37  O   UNL     1      30.498  29.557 -49.076  1.00  0.00    -0.504 OA
ATOM     38  H   UNL     1      30.313  29.527 -50.036  1.00  0.00     0.293 HD
ENDBRANCH  34  37
ENDBRANCH  28  29
BRANCH  28  39
ATOM     39  O   UNL     1      31.458  35.413 -46.950  1.00  0.00    -0.386 OA
ATOM     40  H   UNL     1      30.638  35.809 -47.316  1.00  0.00     0.211 HD
ENDBRANCH  28  39
ENDBRANCH  27  28
ENDBRANCH  26  27
ENDBRANCH   5  26
BRANCH   4  41
ATOM     41  O   UNL     1      29.424  37.618 -47.285  1.00  0.00    -0.385 OA
ATOM     42  H   UNL     1      28.760  38.127 -46.779  1.00  0.00     0.211 HD
ENDBRANCH   4  41
TORSDOF 16
ENDMDL
MODEL 3
REMARK VINA RESULT:    -6.418      2.156      3.338
REMARK INTER + INTRA:         -12.122
REMARK INTER:                 -10.472
REMARK INTRA:                  -1.649
REMARK UNBOUND:                -1.390
REMARK SMILES C[C@@H]1O[C@@H](OC[C@H]2O[C@@H](OCC(O)c3ccc(O)c(O)c3)[C@H](O)[C@@H](O)[C@@H]2O)[C@H](O)[C@H](O)[C@H]1O
REMARK SMILES IDX 7 1 26 2 24 3 22 4 9 5 8 6 6 7 5 8 4 9 2 10 32 11 3 12 30 13
REMARK SMILES IDX 28 14 1 15 33 16 31 18 29 20 27 22 25 24 10 26 11 27 12 28
REMARK SMILES IDX 14 29 21 30 15 31 19 32 16 33 17 34 20 35 18 37 13 39 23 41
REMARK H PARENT 33 17 31 19 29 21 27 23 25 25 20 36 18 38 13 40 23 42
ROOT
ATOM      1  C   UNL     1      27.750  36.902 -49.010  1.00  0.00     0.178 C 
ATOM      2  C   UNL     1      27.214  36.818 -47.573  1.00  0.00     0.177 C 
ATOM      3  C   UNL     1      28.045  35.821 -46.768  1.00  0.00     0.179 C 
ATOM      4  C   UNL     1      29.525  36.170 -46.856  1.00  0.00     0.202 C 
ATOM      5  C   UNL     1      29.947  36.270 -48.334  1.00  0.00     0.282 C 
ATOM      6  O   UNL     1      29.152  37.250 -49.006  1.00  0.00    -0.341 OA
ENDROOT
BRANCH   1   7
ATOM      7  C   UNL     1      26.976  37.959 -49.813  1.00  0.00     0.198 C 
BRANCH   7   8
ATOM      8  O   UNL     1      27.905  38.902 -50.361  1.00  0.00    -0.347 OA
BRANCH   8   9
ATOM      9  C   UNL     1      27.672  40.241 -49.915  1.00  0.00     0.281 C 
ATOM     10  C   UNL     1      29.377  41.155 -51.331  1.00  0.00     0.150 C 
ATOM     11  C   UNL     1      30.245  41.572 -50.132  1.00  0.00     0.174 C 
ATOM     12  O   UNL     1      27.992  41.150 -50.980  1.00  0.00    -0.344 OA
ATOM     13  C   UNL     1      29.961  40.637 -48.949  1.00  0.00     0.179 C 
ATOM     14  C   UNL     1      28.466  40.582 -48.637  1.00  0.00     0.202 C 
ATOM     15  C   UNL     1      29.540  42.111 -52.508  1.00  0.00     0.041 C 
BRANCH  11  16
ATOM     16  O   UNL     1      31.651  41.529 -50.448  1.00  0.00    -0.388 OA
ATOM     17  H   UNL     1      32.034  40.860 -49.847  1.00  0.00     0.211 HD
ENDBRANCH  11  16
BRANCH  13  18
ATOM     18  O   UNL     1      30.659  41.109 -47.781  1.00  0.00    -0.387 OA
ATOM     19  H   UNL     1      30.452  40.467 -47.073  1.00  0.00     0.211 HD
ENDBRANCH  13  18
BRANCH  14  20
ATOM     20  O   UNL     1      28.056  41.847 -48.089  1.00  0.00    -0.385 OA
ATOM     21  H   UNL     1      27.818  41.648 -47.159  1.00  0.00     0.211 HD
ENDBRANCH  14  20
ENDBRANCH   8   9
ENDBRANCH   7   8
ENDBRANCH   1   7
BRANCH   2  22
ATOM     22  O   UNL     1      25.846  36.408 -47.554  1.00  0.00    -0.387 OA
ATOM     23  H   UNL     1      25.826  35.553 -48.031  1.00  0.00     0.211 HD
ENDBRANCH   2  22
BRANCH   3  24
ATOM     24  O   UNL     1      27.605  35.842 -45.401  1.00  0.00    -0.387 OA
ATOM     25  H   UNL     1      28.078  36.596 -44.993  1.00  0.00     0.211 HD
ENDBRANCH   3  24
BRANCH   5  26
ATOM     26  O   UNL     1      31.322  36.664 -48.324  1.00  0.00    -0.347 OA
BRANCH  26  27
ATOM     27  C   UNL     1      32.170  35.919 -49.207  1.00  0.00     0.200 C 
BRANCH  27  28
ATOM     28  C   UNL     1      32.843  34.668 -48.602  1.00  0.00     0.170 C 
BRANCH  28  29
ATOM     29  C   UNL     1      32.078  33.357 -48.623  1.00  0.00    -0.013 A 
ATOM     30  C   UNL     1      32.228  32.480 -47.531  1.00  0.00     0.056 A 
ATOM     31  C   UNL     1      31.255  32.954 -49.689  1.00  0.00     0.010 A 
ATOM     32  C   UNL     1      31.547  31.268 -47.498  1.00  0.00     0.157 A 
ATOM     33  C   UNL     1      30.589  31.723 -49.661  1.00  0.00     0.050 A 
ATOM     34  C   UNL     1      30.740  30.891 -48.564  1.00  0.00     0.157 A 
BRANCH  32  35
ATOM     35  O   UNL     1      31.624  30.430 -46.420  1.00  0.00    -0.504 OA
ATOM     36  H   UNL     1      32.572  30.197 -46.291  1.00  0.00     0.293 HD
ENDBRANCH  32  35
BRANCH  34  37
ATOM     37  O   UNL     1      30.081  29.696 -48.535  1.00  0.00    -0.504 OA
ATOM     38  H   UNL     1      29.140  29.939 -48.421  1.00  0.00     0.293 HD
ENDBRANCH  34  37
ENDBRANCH  28  29
BRANCH  28  39
ATOM     39  O   UNL     1      33.279  34.951 -47.269  1.00  0.00    -0.386 OA
ATOM     40  H   UNL     1      32.969  35.860 -47.067  1.00  0.00     0.211 HD
ENDBRANCH  28  39
ENDBRANCH  27  28
ENDBRANCH  26  27
ENDBRANCH   5  26
BRANCH   4  41
ATOM     41  O   UNL     1      30.281  35.166 -46.159  1.00  0.00    -0.385 OA
ATOM     42  H   UNL     1      29.676  34.820 -45.473  1.00  0.00     0.211 HD
ENDBRANCH   4  41
TORSDOF 16
ENDMDL
MODEL 4
REMARK VINA RESULT:    -6.408      2.341      3.653
REMARK INTER + INTRA:         -12.105
REMARK INTER:                 -10.470
REMARK INTRA:                  -1.635
REMARK UNBOUND:                -1.390
REMARK SMILES C[C@@H]1O[C@@H](OC[C@H]2O[C@@H](OCC(O)c3ccc(O)c(O)c3)[C@H](O)[C@@H](O)[C@@H]2O)[C@H](O)[C@H](O)[C@H]1O
REMARK SMILES IDX 7 1 26 2 24 3 22 4 9 5 8 6 6 7 5 8 4 9 2 10 32 11 3 12 30 13
REMARK SMILES IDX 28 14 1 15 33 16 31 18 29 20 27 22 25 24 10 26 11 27 12 28
REMARK SMILES IDX 14 29 21 30 15 31 19 32 16 33 17 34 20 35 18 37 13 39 23 41
REMARK H PARENT 33 17 31 19 29 21 27 23 25 25 20 36 18 38 13 40 23 42
ROOT
ATOM      1  C   UNL     1      27.393  36.409 -49.155  1.00  0.00     0.178 C 
ATOM      2  C   UNL     1      26.482  37.278 -48.276  1.00  0.00     0.177 C 
ATOM      3  C   UNL     1      26.189  36.558 -46.961  1.00  0.00     0.179 C 
ATOM      4  C   UNL     1      27.489  36.142 -46.284  1.00  0.00     0.202 C 
ATOM      5  C   UNL     1      28.342  35.314 -47.263  1.00  0.00     0.282 C 
ATOM      6  O   UNL     1      28.605  36.071 -48.447  1.00  0.00    -0.341 OA
ENDROOT
BRANCH   1   7
ATOM      7  C   UNL     1      27.761  37.152 -50.449  1.00  0.00     0.198 C 
BRANCH   7   8
ATOM      8  O   UNL     1      27.835  38.557 -50.175  1.00  0.00    -0.347 OA
BRANCH   8   9
ATOM      9  C   UNL     1      28.826  39.228 -50.957  1.00  0.00     0.281 C 
ATOM     10  C   UNL     1      30.474  39.111 -49.221  1.00  0.00     0.150 C 
ATOM     11  C   UNL     1      30.486  40.638 -49.035  1.00  0.00     0.174 C 
ATOM     12  O   UNL     1      30.127  38.764 -50.562  1.00  0.00    -0.344 OA
ATOM     13  C   UNL     1      29.118  41.210 -49.434  1.00  0.00     0.179 C 
ATOM     14  C   UNL     1      28.726  40.764 -50.843  1.00  0.00     0.202 C 
ATOM     15  C   UNL     1      31.840  38.496 -48.934  1.00  0.00     0.041 C 
BRANCH  11  16
ATOM     16  O   UNL     1      30.778  41.010 -47.673  1.00  0.00    -0.388 OA
ATOM     17  H   UNL     1      30.521  41.950 -47.597  1.00  0.00     0.211 HD
ENDBRANCH  11  16
BRANCH  13  18
ATOM     18  O   UNL     1      29.167  42.648 -49.403  1.00  0.00    -0.387 OA
ATOM     19  H   UNL     1      28.286  42.948 -49.704  1.00  0.00     0.211 HD
ENDBRANCH  13  18
BRANCH  14  20
ATOM     20  O   UNL     1      29.584  41.416 -51.796  1.00  0.00    -0.385 OA
ATOM     21  H   UNL     1      30.219  40.723 -52.072  1.00  0.00     0.211 HD
ENDBRANCH  14  20
ENDBRANCH   8   9
ENDBRANCH   7   8
ENDBRANCH   1   7
BRANCH   2  22
ATOM     22  O   UNL     1      25.247  37.566 -48.935  1.00  0.00    -0.387 OA
ATOM     23  H   UNL     1      25.403  37.353 -49.878  1.00  0.00     0.211 HD
ENDBRANCH   2  22
BRANCH   3  24
ATOM     24  O   UNL     1      25.435  37.431 -46.107  1.00  0.00    -0.387 OA
ATOM     25  H   UNL     1      24.800  36.848 -45.644  1.00  0.00     0.211 HD
ENDBRANCH   3  24
BRANCH   5  26
ATOM     26  O   UNL     1      29.563  35.025 -46.574  1.00  0.00    -0.347 OA
BRANCH  26  27
ATOM     27  C   UNL     1      30.713  35.721 -47.068  1.00  0.00     0.200 C 
BRANCH  27  28
ATOM     28  C   UNL     1      31.696  34.886 -47.918  1.00  0.00     0.170 C 
BRANCH  28  29
ATOM     29  C   UNL     1      31.326  33.451 -48.245  1.00  0.00    -0.013 A 
ATOM     30  C   UNL     1      31.700  32.442 -47.335  1.00  0.00     0.056 A 
ATOM     31  C   UNL     1      30.660  33.068 -49.422  1.00  0.00     0.010 A 
ATOM     32  C   UNL     1      31.382  31.112 -47.585  1.00  0.00     0.157 A 
ATOM     33  C   UNL     1      30.362  31.725 -49.678  1.00  0.00     0.050 A 
ATOM     34  C   UNL     1      30.726  30.757 -48.756  1.00  0.00     0.157 A 
BRANCH  32  35
ATOM     35  O   UNL     1      31.677  30.123 -46.687  1.00  0.00    -0.504 OA
ATOM     36  H   UNL     1      31.128  30.277 -45.883  1.00  0.00     0.293 HD
ENDBRANCH  32  35
BRANCH  34  37
ATOM     37  O   UNL     1      30.424  29.450 -49.004  1.00  0.00    -0.504 OA
ATOM     38  H   UNL     1      29.707  29.240 -48.373  1.00  0.00     0.293 HD
ENDBRANCH  34  37
ENDBRANCH  28  29
BRANCH  28  39
ATOM     39  O   UNL     1      32.999  34.927 -47.328  1.00  0.00    -0.386 OA
ATOM     40  H   UNL     1      33.629  35.078 -48.065  1.00  0.00     0.211 HD
ENDBRANCH  28  39
ENDBRANCH  27  28
ENDBRANCH  26  27
ENDBRANCH   5  26
BRANCH   4  41
ATOM     41  O   UNL     1      27.175  35.395 -45.097  1.00  0.00    -0.385 OA
ATOM     42  H   UNL     1      28.023  35.309 -44.617  1.00  0.00     0.211 HD
ENDBRANCH   4  41
TORSDOF 16
ENDMDL
MODEL 5
REMARK VINA RESULT:    -6.373      5.452      7.812
REMARK INTER + INTRA:         -12.048
REMARK INTER:                 -11.255
REMARK INTRA:                  -0.793
REMARK UNBOUND:                -1.390
REMARK SMILES C[C@@H]1O[C@@H](OC[C@H]2O[C@@H](OCC(O)c3ccc(O)c(O)c3)[C@H](O)[C@@H](O)[C@@H]2O)[C@H](O)[C@H](O)[C@H]1O
REMARK SMILES IDX 7 1 26 2 24 3 22 4 9 5 8 6 6 7 5 8 4 9 2 10 32 11 3 12 30 13
REMARK SMILES IDX 28 14 1 15 33 16 31 18 29 20 27 22 25 24 10 26 11 27 12 28
REMARK SMILES IDX 14 29 21 30 15 31 19 32 16 33 17 34 20 35 18 37 13 39 23 41
REMARK H PARENT 33 17 31 19 29 21 27 23 25 25 20 36 18 38 13 40 23 42
ROOT
ATOM      1  C   UNL     1      28.212  42.733 -51.654  1.00  0.00     0.178 C 
ATOM      2  C   UNL     1      28.285  43.813 -50.565  1.00  0.00     0.177 C 
ATOM      3  C   UNL     1      27.615  43.307 -49.289  1.00  0.00     0.179 C 
ATOM      4  C   UNL     1      28.208  41.967 -48.873  1.00  0.00     0.202 C 
ATOM      5  C   UNL     1      28.123  40.975 -50.048  1.00  0.00     0.282 C 
ATOM      6  O   UNL     1      28.806  41.503 -51.187  1.00  0.00    -0.341 OA
ENDROOT
BRANCH   1   7
ATOM      7  C   UNL     1      28.952  43.196 -52.920  1.00  0.00     0.198 C 
BRANCH   7   8
ATOM      8  O   UNL     1      29.549  44.474 -52.671  1.00  0.00    -0.347 OA
BRANCH   8   9
ATOM      9  C   UNL     1      30.970  44.469 -52.828  1.00  0.00     0.281 C 
ATOM     10  C   UNL     1      30.914  46.043 -54.635  1.00  0.00     0.150 C 
ATOM     11  C   UNL     1      31.426  45.004 -55.647  1.00  0.00     0.174 C 
ATOM     12  O   UNL     1      31.391  45.751 -53.320  1.00  0.00    -0.344 OA
ATOM     13  C   UNL     1      31.007  43.599 -55.189  1.00  0.00     0.179 C 
ATOM     14  C   UNL     1      31.456  43.333 -53.752  1.00  0.00     0.202 C 
ATOM     15  C   UNL     1      31.385  47.451 -54.984  1.00  0.00     0.041 C 
BRANCH  11  16
ATOM     16  O   UNL     1      30.910  45.246 -56.971  1.00  0.00    -0.388 OA
ATOM     17  H   UNL     1      31.344  44.586 -57.547  1.00  0.00     0.211 HD
ENDBRANCH  11  16
BRANCH  13  18
ATOM     18  O   UNL     1      31.605  42.612 -56.049  1.00  0.00    -0.387 OA
ATOM     19  H   UNL     1      30.961  41.877 -56.094  1.00  0.00     0.211 HD
ENDBRANCH  13  18
BRANCH  14  20
ATOM     20  O   UNL     1      32.889  43.213 -53.725  1.00  0.00    -0.385 OA
ATOM     21  H   UNL     1      33.203  44.080 -53.391  1.00  0.00     0.211 HD
ENDBRANCH  14  20
ENDBRANCH   8   9
ENDBRANCH   7   8
ENDBRANCH   1   7
BRANCH   2  22
ATOM     22  O   UNL     1      27.642  45.018 -50.984  1.00  0.00    -0.387 OA
ATOM     23  H   UNL     1      28.269  45.442 -51.606  1.00  0.00     0.211 HD
ENDBRANCH   2  22
BRANCH   3  24
ATOM     24  O   UNL     1      27.795  44.280 -48.248  1.00  0.00    -0.387 OA
ATOM     25  H   UNL     1      28.562  44.818 -48.533  1.00  0.00     0.211 HD
ENDBRANCH   3  24
BRANCH   5  26
ATOM     26  O   UNL     1      28.757  39.775 -49.596  1.00  0.00    -0.347 OA
BRANCH  26  27
ATOM     27  C   UNL     1      30.120  39.621 -50.010  1.00  0.00     0.200 C 
BRANCH  27  28
ATOM     28  C   UNL     1      31.127  39.243 -48.901  1.00  0.00     0.170 C 
BRANCH  28  29
ATOM     29  C   UNL     1      31.126  37.815 -48.385  1.00  0.00    -0.013 A 
ATOM     30  C   UNL     1      30.273  37.495 -47.311  1.00  0.00     0.056 A 
ATOM     31  C   UNL     1      31.955  36.803 -48.898  1.00  0.00     0.010 A 
ATOM     32  C   UNL     1      30.231  36.202 -46.803  1.00  0.00     0.157 A 
ATOM     33  C   UNL     1      31.925  35.508 -48.368  1.00  0.00     0.050 A 
ATOM     34  C   UNL     1      31.062  35.218 -47.325  1.00  0.00     0.157 A 
BRANCH  32  35
ATOM     35  O   UNL     1      29.365  35.850 -45.804  1.00  0.00    -0.504 OA
ATOM     36  H   UNL     1      29.736  36.186 -44.956  1.00  0.00     0.293 HD
ENDBRANCH  32  35
BRANCH  34  37
ATOM     37  O   UNL     1      31.027  33.952 -46.817  1.00  0.00    -0.504 OA
ATOM     38  H   UNL     1      31.039  34.077 -45.847  1.00  0.00     0.293 HD
ENDBRANCH  34  37
ENDBRANCH  28  29
BRANCH  28  39
ATOM     39  O   UNL     1      31.000  40.153 -47.805  1.00  0.00    -0.386 OA
ATOM     40  H   UNL     1      31.859  40.624 -47.739  1.00  0.00     0.211 HD
ENDBRANCH  28  39
ENDBRANCH  27  28
ENDBRANCH  26  27
ENDBRANCH   5  26
BRANCH   4  41
ATOM     41  O   UNL     1      27.498  41.483 -47.721  1.00  0.00    -0.385 OA
ATOM     42  H   UNL     1      27.007  40.698 -48.035  1.00  0.00     0.211 HD
ENDBRANCH   4  41
TORSDOF 16
ENDMDL
MODEL 6
REMARK VINA RESULT:    -6.359      2.627      6.734
REMARK INTER + INTRA:         -12.024
REMARK INTER:                 -10.198
REMARK INTRA:                  -1.826
REMARK UNBOUND:                -1.390
REMARK SMILES C[C@@H]1O[C@@H](OC[C@H]2O[C@@H](OCC(O)c3ccc(O)c(O)c3)[C@H](O)[C@@H](O)[C@@H]2O)[C@H](O)[C@H](O)[C@H]1O
REMARK SMILES IDX 7 1 26 2 24 3 22 4 9 5 8 6 6 7 5 8 4 9 2 10 32 11 3 12 30 13
REMARK SMILES IDX 28 14 1 15 33 16 31 18 29 20 27 22 25 24 10 26 11 27 12 28
REMARK SMILES IDX 14 29 21 30 15 31 19 32 16 33 17 34 20 35 18 37 13 39 23 41
REMARK H PARENT 33 17 31 19 29 21 27 23 25 25 20 36 18 38 13 40 23 42
ROOT
ATOM      1  C   UNL     1      29.850  32.880 -49.108  1.00  0.00     0.178 C 
ATOM      2  C   UNL     1      30.264  32.008 -47.914  1.00  0.00     0.177 C 
ATOM      3  C   UNL     1      31.780  32.060 -47.736  1.00  0.00     0.179 C 
ATOM      4  C   UNL     1      32.254  33.504 -47.641  1.00  0.00     0.202 C 
ATOM      5  C   UNL     1      31.750  34.297 -48.862  1.00  0.00     0.282 C 
ATOM      6  O   UNL     1      30.325  34.233 -48.934  1.00  0.00    -0.341 OA
ENDROOT
BRANCH   1   7
ATOM      7  C   UNL     1      28.320  32.903 -49.254  1.00  0.00     0.198 C 
BRANCH   7   8
ATOM      8  O   UNL     1      27.877  34.264 -49.313  1.00  0.00    -0.347 OA
BRANCH   8   9
ATOM      9  C   UNL     1      26.590  34.461 -48.721  1.00  0.00     0.281 C 
ATOM     10  C   UNL     1      26.821  36.846 -48.680  1.00  0.00     0.150 C 
ATOM     11  C   UNL     1      26.842  36.886 -47.143  1.00  0.00     0.174 C 
ATOM     12  O   UNL     1      26.067  35.728 -49.150  1.00  0.00    -0.344 OA
ATOM     13  C   UNL     1      27.398  35.559 -46.607  1.00  0.00     0.179 C 
ATOM     14  C   UNL     1      26.630  34.369 -47.182  1.00  0.00     0.202 C 
ATOM     15  C   UNL     1      26.185  38.100 -49.270  1.00  0.00     0.041 C 
BRANCH  11  16
ATOM     16  O   UNL     1      27.646  37.975 -46.645  1.00  0.00    -0.388 OA
ATOM     17  H   UNL     1      27.013  38.620 -46.274  1.00  0.00     0.211 HD
ENDBRANCH  11  16
BRANCH  13  18
ATOM     18  O   UNL     1      27.284  35.532 -45.172  1.00  0.00    -0.387 OA
ATOM     19  H   UNL     1      28.159  35.808 -44.833  1.00  0.00     0.211 HD
ENDBRANCH  13  18
BRANCH  14  20
ATOM     20  O   UNL     1      25.304  34.355 -46.624  1.00  0.00    -0.385 OA
ATOM     21  H   UNL     1      25.397  33.865 -45.780  1.00  0.00     0.211 HD
ENDBRANCH  14  20
ENDBRANCH   8   9
ENDBRANCH   7   8
ENDBRANCH   1   7
BRANCH   2  22
ATOM     22  O   UNL     1      29.862  30.650 -48.100  1.00  0.00    -0.387 OA
ATOM     23  H   UNL     1      29.709  30.556 -49.063  1.00  0.00     0.211 HD
ENDBRANCH   2  22
BRANCH   3  24
ATOM     24  O   UNL     1      32.136  31.335 -46.548  1.00  0.00    -0.387 OA
ATOM     25  H   UNL     1      33.081  31.544 -46.397  1.00  0.00     0.211 HD
ENDBRANCH   3  24
BRANCH   5  26
ATOM     26  O   UNL     1      32.181  35.646 -48.658  1.00  0.00    -0.347 OA
BRANCH  26  27
ATOM     27  C   UNL     1      31.727  36.579 -49.647  1.00  0.00     0.200 C 
BRANCH  27  28
ATOM     28  C   UNL     1      30.641  37.577 -49.188  1.00  0.00     0.170 C 
BRANCH  28  29
ATOM     29  C   UNL     1      30.893  39.060 -49.394  1.00  0.00    -0.013 A 
ATOM     30  C   UNL     1      30.361  39.672 -50.546  1.00  0.00     0.056 A 
ATOM     31  C   UNL     1      31.655  39.848 -48.516  1.00  0.00     0.010 A 
ATOM     32  C   UNL     1      30.560  41.028 -50.781  1.00  0.00     0.157 A 
ATOM     33  C   UNL     1      31.870  41.208 -48.769  1.00  0.00     0.050 A 
ATOM     34  C   UNL     1      31.318  41.787 -49.900  1.00  0.00     0.157 A 
BRANCH  32  35
ATOM     35  O   UNL     1      30.000  41.659 -51.858  1.00  0.00    -0.504 OA
ATOM     36  H   UNL     1      30.176  41.105 -52.653  1.00  0.00     0.293 HD
ENDBRANCH  32  35
BRANCH  34  37
ATOM     37  O   UNL     1      31.521  43.115 -50.138  1.00  0.00    -0.504 OA
ATOM     38  H   UNL     1      32.064  43.418 -49.383  1.00  0.00     0.293 HD
ENDBRANCH  34  37
ENDBRANCH  28  29
BRANCH  28  39
ATOM     39  O   UNL     1      30.306  37.329 -47.819  1.00  0.00    -0.386 OA
ATOM     40  H   UNL     1      30.961  36.676 -47.491  1.00  0.00     0.211 HD
ENDBRANCH  28  39
ENDBRANCH  27  28
ENDBRANCH  26  27
ENDBRANCH   5  26
BRANCH   4  41
ATOM     41  O   UNL     1      33.689  33.517 -47.559  1.00  0.00    -0.385 OA
ATOM     42  H   UNL     1      33.998  33.571 -48.485  1.00  0.00     0.211 HD
ENDBRANCH   4  41
TORSDOF 16
ENDMDL
MODEL 7
REMARK VINA RESULT:    -6.289      5.062      6.539
REMARK INTER + INTRA:         -11.907
REMARK INTER:                 -10.571
REMARK INTRA:                  -1.336
REMARK UNBOUND:                -1.390
REMARK SMILES C[C@@H]1O[C@@H](OC[C@H]2O[C@@H](OCC(O)c3ccc(O)c(O)c3)[C@H](O)[C@@H](O)[C@@H]2O)[C@H](O)[C@H](O)[C@H]1O
REMARK SMILES IDX 7 1 26 2 24 3 22 4 9 5 8 6 6 7 5 8 4 9 2 10 32 11 3 12 30 13
REMARK SMILES IDX 28 14 1 15 33 16 31 18 29 20 27 22 25 24 10 26 11 27 12 28
REMARK SMILES IDX 14 29 21 30 15 31 19 32 16 33 17 34 20 35 18 37 13 39 23 41
REMARK H PARENT 33 17 31 19 29 21 27 23 25 25 20 36 18 38 13 40 23 42
ROOT
ATOM      1  C   UNL     1      30.623  41.286 -51.370  1.00  0.00     0.178 C 
ATOM      2  C   UNL     1      31.342  41.537 -50.036  1.00  0.00     0.177 C 
ATOM      3  C   UNL     1      30.556  40.894 -48.895  1.00  0.00     0.179 C 
ATOM      4  C   UNL     1      30.298  39.422 -49.192  1.00  0.00     0.202 C 
ATOM      5  C   UNL     1      29.615  39.282 -50.566  1.00  0.00     0.282 C 
ATOM      6  O   UNL     1      30.430  39.871 -51.581  1.00  0.00    -0.341 OA
ENDROOT
BRANCH   1   7
ATOM      7  C   UNL     1      31.441  41.859 -52.538  1.00  0.00     0.198 C 
BRANCH   7   8
ATOM      8  O   UNL     1      30.692  42.909 -53.162  1.00  0.00    -0.347 OA
BRANCH   8   9
ATOM      9  C   UNL     1      31.376  44.165 -53.155  1.00  0.00     0.281 C 
ATOM     10  C   UNL     1      29.753  45.197 -51.724  1.00  0.00     0.150 C 
ATOM     11  C   UNL     1      29.293  46.163 -52.829  1.00  0.00     0.174 C 
ATOM     12  O   UNL     1      31.121  44.829 -51.907  1.00  0.00    -0.344 OA
ATOM     13  C   UNL     1      29.529  45.517 -54.201  1.00  0.00     0.179 C 
ATOM     14  C   UNL     1      30.980  45.058 -54.350  1.00  0.00     0.202 C 
ATOM     15  C   UNL     1      29.636  45.824 -50.339  1.00  0.00     0.041 C 
BRANCH  11  16
ATOM     16  O   UNL     1      27.898  46.503 -52.696  1.00  0.00    -0.388 OA
ATOM     17  H   UNL     1      27.784  46.789 -51.769  1.00  0.00     0.211 HD
ENDBRANCH  11  16
BRANCH  13  18
ATOM     18  O   UNL     1      29.238  46.469 -55.240  1.00  0.00    -0.387 OA
ATOM     19  H   UNL     1      28.322  46.769 -55.074  1.00  0.00     0.211 HD
ENDBRANCH  13  18
BRANCH  14  20
ATOM     20  O   UNL     1      31.829  46.215 -54.443  1.00  0.00    -0.385 OA
ATOM     21  H   UNL     1      32.128  46.376 -53.524  1.00  0.00     0.211 HD
ENDBRANCH  14  20
ENDBRANCH   8   9
ENDBRANCH   7   8
ENDBRANCH   1   7
BRANCH   2  22
ATOM     22  O   UNL     1      31.482  42.935 -49.777  1.00  0.00    -0.387 OA
ATOM     23  H   UNL     1      30.866  43.375 -50.399  1.00  0.00     0.211 HD
ENDBRANCH   2  22
BRANCH   3  24
ATOM     24  O   UNL     1      31.300  41.037 -47.676  1.00  0.00    -0.387 OA
ATOM     25  H   UNL     1      31.742  41.908 -47.747  1.00  0.00     0.211 HD
ENDBRANCH   3  24
BRANCH   5  26
ATOM     26  O   UNL     1      29.472  37.877 -50.792  1.00  0.00    -0.347 OA
BRANCH  26  27
ATOM     27  C   UNL     1      30.705  37.162 -50.943  1.00  0.00     0.200 C 
BRANCH  27  28
ATOM     28  C   UNL     1      30.588  35.627 -51.065  1.00  0.00     0.170 C 
BRANCH  28  29
ATOM     29  C   UNL     1      31.180  34.769 -49.962  1.00  0.00    -0.013 A 
ATOM     30  C   UNL     1      32.206  35.319 -49.168  1.00  0.00     0.056 A 
ATOM     31  C   UNL     1      30.786  33.444 -49.710  1.00  0.00     0.010 A 
ATOM     32  C   UNL     1      32.781  34.578 -48.142  1.00  0.00     0.157 A 
ATOM     33  C   UNL     1      31.383  32.695 -48.690  1.00  0.00     0.050 A 
ATOM     34  C   UNL     1      32.376  33.269 -47.913  1.00  0.00     0.157 A 
BRANCH  32  35
ATOM     35  O   UNL     1      33.733  35.111 -47.317  1.00  0.00    -0.504 OA
ATOM     36  H   UNL     1      34.490  34.481 -47.288  1.00  0.00     0.293 HD
ENDBRANCH  32  35
BRANCH  34  37
ATOM     37  O   UNL     1      32.949  32.539 -46.913  1.00  0.00    -0.504 OA
ATOM     38  H   UNL     1      32.495  32.840 -46.100  1.00  0.00     0.293 HD
ENDBRANCH  34  37
ENDBRANCH  28  29
BRANCH  28  39
ATOM     39  O   UNL     1      31.098  35.204 -52.333  1.00  0.00    -0.386 OA
ATOM     40  H   UNL     1      32.069  35.111 -52.220  1.00  0.00     0.211 HD
ENDBRANCH  28  39
ENDBRANCH  27  28
ENDBRANCH  26  27
ENDBRANCH   5  26
BRANCH   4  41
ATOM     41  O   UNL     1      29.487  38.872 -48.141  1.00  0.00    -0.385 OA
ATOM     42  H   UNL     1      29.838  37.972 -47.990  1.00  0.00     0.211 HD
ENDBRANCH   4  41
TORSDOF 16
ENDMDL
MODEL 8
REMARK VINA RESULT:    -6.283      5.297      7.973
REMARK INTER + INTRA:         -11.896
REMARK INTER:                 -10.499
REMARK INTRA:                  -1.397
REMARK UNBOUND:                -1.390
REMARK SMILES C[C@@H]1O[C@@H](OC[C@H]2O[C@@H](OCC(O)c3ccc(O)c(O)c3)[C@H](O)[C@@H](O)[C@@H]2O)[C@H](O)[C@H](O)[C@H]1O
REMARK SMILES IDX 7 1 26 2 24 3 22 4 9 5 8 6 6 7 5 8 4 9 2 10 32 11 3 12 30 13
REMARK SMILES IDX 28 14 1 15 33 16 31 18 29 20 27 22 25 24 10 26 11 27 12 28
REMARK SMILES IDX 14 29 21 30 15 31 19 32 16 33 17 34 20 35 18 37 13 39 23 41
REMARK H PARENT 33 17 31 19 29 21 27 23 25 25 20 36 18 38 13 40 23 42
ROOT
ATOM      1  C   UNL     1      27.970  43.420 -51.646  1.00  0.00     0.178 C 
ATOM      2  C   UNL     1      27.926  44.289 -50.381  1.00  0.00     0.177 C 
ATOM      3  C   UNL     1      27.539  43.433 -49.177  1.00  0.00     0.179 C 
ATOM      4  C   UNL     1      28.461  42.226 -49.066  1.00  0.00     0.202 C 
ATOM      5  C   UNL     1      28.463  41.451 -50.397  1.00  0.00     0.282 C 
ATOM      6  O   UNL     1      28.875  42.309 -51.464  1.00  0.00    -0.341 OA
ENDROOT
BRANCH   1   7
ATOM      7  C   UNL     1      28.435  44.249 -52.854  1.00  0.00     0.198 C 
BRANCH   7   8
ATOM      8  O   UNL     1      28.654  43.372 -53.966  1.00  0.00    -0.347 OA
BRANCH   8   9
ATOM      9  C   UNL     1      29.529  43.926 -54.952  1.00  0.00     0.281 C 
ATOM     10  C   UNL     1      30.230  41.772 -55.737  1.00  0.00     0.150 C 
ATOM     11  C   UNL     1      31.671  41.984 -55.242  1.00  0.00     0.174 C 
ATOM     12  O   UNL     1      29.615  43.019 -56.063  1.00  0.00    -0.344 OA
ATOM     13  C   UNL     1      31.661  42.943 -54.044  1.00  0.00     0.179 C 
ATOM     14  C   UNL     1      30.929  44.242 -54.385  1.00  0.00     0.202 C 
ATOM     15  C   UNL     1      30.185  40.905 -56.991  1.00  0.00     0.041 C 
BRANCH  11  16
ATOM     16  O   UNL     1      32.292  40.742 -54.853  1.00  0.00    -0.388 OA
ATOM     17  H   UNL     1      31.604  40.244 -54.372  1.00  0.00     0.211 HD
ENDBRANCH  11  16
BRANCH  13  18
ATOM     18  O   UNL     1      33.013  43.261 -53.668  1.00  0.00    -0.387 OA
ATOM     19  H   UNL     1      33.176  44.164 -54.007  1.00  0.00     0.211 HD
ENDBRANCH  13  18
BRANCH  14  20
ATOM     20  O   UNL     1      31.719  44.990 -55.327  1.00  0.00    -0.385 OA
ATOM     21  H   UNL     1      31.219  44.933 -56.167  1.00  0.00     0.211 HD
ENDBRANCH  14  20
ENDBRANCH   8   9
ENDBRANCH   7   8
ENDBRANCH   1   7
BRANCH   2  22
ATOM     22  O   UNL     1      26.985  45.356 -50.518  1.00  0.00    -0.387 OA
ATOM     23  H   UNL     1      26.662  45.298 -51.441  1.00  0.00     0.211 HD
ENDBRANCH   2  22
BRANCH   3  24
ATOM     24  O   UNL     1      27.617  44.235 -47.989  1.00  0.00    -0.387 OA
ATOM     25  H   UNL     1      27.639  43.594 -47.249  1.00  0.00     0.211 HD
ENDBRANCH   3  24
BRANCH   5  26
ATOM     26  O   UNL     1      29.399  40.382 -50.227  1.00  0.00    -0.347 OA
BRANCH  26  27
ATOM     27  C   UNL     1      30.738  40.794 -49.931  1.00  0.00     0.200 C 
BRANCH  27  28
ATOM     28  C   UNL     1      31.401  40.119 -48.710  1.00  0.00     0.170 C 
BRANCH  28  29
ATOM     29  C   UNL     1      31.155  38.638 -48.485  1.00  0.00    -0.013 A 
ATOM     30  C   UNL     1      30.166  38.260 -47.555  1.00  0.00     0.056 A 
ATOM     31  C   UNL     1      31.883  37.622 -49.128  1.00  0.00     0.010 A 
ATOM     32  C   UNL     1      29.899  36.917 -47.314  1.00  0.00     0.157 A 
ATOM     33  C   UNL     1      31.625  36.272 -48.865  1.00  0.00     0.050 A 
ATOM     34  C   UNL     1      30.633  35.931 -47.960  1.00  0.00     0.157 A 
BRANCH  32  35
ATOM     35  O   UNL     1      28.901  36.525 -46.465  1.00  0.00    -0.504 OA
ATOM     36  H   UNL     1      28.169  36.159 -47.014  1.00  0.00     0.293 HD
ENDBRANCH  32  35
BRANCH  34  37
ATOM     37  O   UNL     1      30.377  34.613 -47.714  1.00  0.00    -0.504 OA
ATOM     38  H   UNL     1      30.364  34.545 -46.738  1.00  0.00     0.293 HD
ENDBRANCH  34  37
ENDBRANCH  28  29
BRANCH  28  39
ATOM     39  O   UNL     1      31.079  40.848 -47.523  1.00  0.00    -0.386 OA
ATOM     40  H   UNL     1      31.870  41.389 -47.309  1.00  0.00     0.211 HD
ENDBRANCH  28  39
ENDBRANCH  27  28
ENDBRANCH  26  27
ENDBRANCH   5  26
BRANCH   4  41
ATOM     41  O   UNL     1      28.016  41.401 -47.977  1.00  0.00    -0.385 OA
ATOM     42  H   UNL     1      28.723  40.736 -47.854  1.00  0.00     0.211 HD
ENDBRANCH   4  41
TORSDOF 16
ENDMDL
MODEL 9
REMARK VINA RESULT:    -6.254      4.989      9.878
REMARK INTER + INTRA:         -11.848
REMARK INTER:                  -9.977
REMARK INTRA:                  -1.872
REMARK UNBOUND:                -1.390
REMARK SMILES C[C@@H]1O[C@@H](OC[C@H]2O[C@@H](OCC(O)c3ccc(O)c(O)c3)[C@H](O)[C@@H](O)[C@@H]2O)[C@H](O)[C@H](O)[C@H]1O
REMARK SMILES IDX 7 1 26 2 24 3 22 4 9 5 8 6 6 7 5 8 4 9 2 10 32 11 3 12 30 13
REMARK SMILES IDX 28 14 1 15 33 16 31 18 29 20 27 22 25 24 10 26 11 27 12 28
REMARK SMILES IDX 14 29 21 30 15 31 19 32 16 33 17 34 20 35 18 37 13 39 23 41
REMARK H PARENT 33 17 31 19 29 21 27 23 25 25 20 36 18 38 13 40 23 42
ROOT
ATOM      1  C   UNL     1      29.612  40.936 -52.990  1.00  0.00     0.178 C 
ATOM      2  C   UNL     1      30.766  40.334 -53.804  1.00  0.00     0.177 C 
ATOM      3  C   UNL     1      31.366  41.399 -54.720  1.00  0.00     0.179 C 
ATOM      4  C   UNL     1      31.755  42.633 -53.914  1.00  0.00     0.202 C 
ATOM      5  C   UNL     1      30.540  43.128 -53.106  1.00  0.00     0.282 C 
ATOM      6  O   UNL     1      30.066  42.089 -52.247  1.00  0.00    -0.341 OA
ENDROOT
BRANCH   1   7
ATOM      7  C   UNL     1      29.048  39.899 -52.005  1.00  0.00     0.198 C 
BRANCH   7   8
ATOM      8  O   UNL     1      30.130  39.120 -51.479  1.00  0.00    -0.347 OA
BRANCH   8   9
ATOM      9  C   UNL     1      30.612  39.608 -50.224  1.00  0.00     0.281 C 
ATOM     10  C   UNL     1      30.784  37.411 -49.280  1.00  0.00     0.150 C 
ATOM     11  C   UNL     1      29.674  37.691 -48.252  1.00  0.00     0.174 C 
ATOM     12  O   UNL     1      31.466  38.615 -49.633  1.00  0.00    -0.344 OA
ATOM     13  C   UNL     1      28.712  38.745 -48.818  1.00  0.00     0.179 C 
ATOM     14  C   UNL     1      29.467  39.997 -49.265  1.00  0.00     0.202 C 
ATOM     15  C   UNL     1      31.829  36.444 -48.734  1.00  0.00     0.041 C 
BRANCH  11  16
ATOM     16  O   UNL     1      28.934  36.498 -47.924  1.00  0.00    -0.388 OA
ATOM     17  H   UNL     1      28.900  35.975 -48.748  1.00  0.00     0.211 HD
ENDBRANCH  11  16
BRANCH  13  18
ATOM     18  O   UNL     1      27.757  39.119 -47.808  1.00  0.00    -0.387 OA
ATOM     19  H   UNL     1      26.922  38.672 -48.055  1.00  0.00     0.211 HD
ENDBRANCH  13  18
BRANCH  14  20
ATOM     20  O   UNL     1      29.968  40.680 -48.102  1.00  0.00    -0.385 OA
ATOM     21  H   UNL     1      30.203  39.963 -47.477  1.00  0.00     0.211 HD
ENDBRANCH  14  20
ENDBRANCH   8   9
ENDBRANCH   7   8
ENDBRANCH   1   7
BRANCH   2  22
ATOM     22  O   UNL     1      30.321  39.233 -54.598  1.00  0.00    -0.387 OA
ATOM     23  H   UNL     1      30.941  39.194 -55.356  1.00  0.00     0.211 HD
ENDBRANCH   2  22
BRANCH   3  24
ATOM     24  O   UNL     1      32.514  40.852 -55.385  1.00  0.00    -0.387 OA
ATOM     25  H   UNL     1      32.365  39.884 -55.396  1.00  0.00     0.211 HD
ENDBRANCH   3  24
BRANCH   5  26
ATOM     26  O   UNL     1      31.009  44.238 -52.335  1.00  0.00    -0.347 OA
BRANCH  26  27
ATOM     27  C   UNL     1      29.986  45.130 -51.878  1.00  0.00     0.200 C 
BRANCH  27  28
ATOM     28  C   UNL     1      29.851  45.280 -50.347  1.00  0.00     0.170 C 
BRANCH  28  29
ATOM     29  C   UNL     1      28.537  44.887 -49.697  1.00  0.00    -0.013 A 
ATOM     30  C   UNL     1      28.398  43.570 -49.216  1.00  0.00     0.056 A 
ATOM     31  C   UNL     1      27.437  45.755 -49.580  1.00  0.00     0.010 A 
ATOM     32  C   UNL     1      27.216  43.160 -48.610  1.00  0.00     0.157 A 
ATOM     33  C   UNL     1      26.243  45.330 -48.988  1.00  0.00     0.050 A 
ATOM     34  C   UNL     1      26.143  44.035 -48.507  1.00  0.00     0.157 A 
BRANCH  32  35
ATOM     35  O   UNL     1      27.080  41.907 -48.077  1.00  0.00    -0.504 OA
ATOM     36  H   UNL     1      26.138  41.639 -48.184  1.00  0.00     0.293 HD
ENDBRANCH  32  35
BRANCH  34  37
ATOM     37  O   UNL     1      24.979  43.627 -47.921  1.00  0.00    -0.504 OA
ATOM     38  H   UNL     1      24.703  42.848 -48.445  1.00  0.00     0.293 HD
ENDBRANCH  34  37
ENDBRANCH  28  29
BRANCH  28  39
ATOM     39  O   UNL     1      30.201  46.613 -49.960  1.00  0.00    -0.386 OA
ATOM     40  H   UNL     1      30.821  46.943 -50.646  1.00  0.00     0.211 HD
ENDBRANCH  28  39
ENDBRANCH  27  28
ENDBRANCH  26  27
ENDBRANCH   5  26
BRANCH   4  41
ATOM     41  O   UNL     1      32.235  43.643 -54.817  1.00  0.00    -0.385 OA
ATOM     42  H   UNL     1      31.707  44.440 -54.613  1.00  0.00     0.211 HD
ENDBRANCH   4  41
TORSDOF 16
ENDMDL
